# vtk DataFile Version 3.0
9 points difference shceme(6-order bound)_
ASCII
DATASET STRUCTURED_POINTS
DIMENSIONS 11 11 1
ORIGIN 0.0 0.0 0.0
SPACING 0.1 0.1 1.0
POINT_DATA 121
SCALARS Temperature double 1
LOOKUP_TABLE default
5.000000e+00
5.000000e+00
5.000000e+00
5.000000e+00
5.000000e+00
5.000000e+00
5.000000e+00
5.000000e+00
5.000000e+00
5.000000e+00
5.000000e+00
5.000000e+00
2.750000e+00
1.775000e+00
1.677500e+00
1.667750e+00
1.666775e+00
1.666678e+00
1.666668e+00
1.666667e+00
2.916667e+00
5.000000e+00
5.000000e+00
1.819375e+00
4.701250e-01
3.008313e-01
2.804650e-01
2.780847e-01
2.778123e-01
2.777816e-01
3.090282e-01
1.864236e+00
5.000000e+00
5.000000e+00
1.693691e+00
2.693867e-01
7.578655e-02
5.009805e-02
4.677521e-02
4.635541e-02
4.708471e-02
8.916174e-02
1.703065e+00
5.000000e+00
5.000000e+00
1.676104e+00
2.387860e-01
3.944437e-02
1.201829e-02
8.290686e-03
7.811107e-03
8.877511e-03
5.355768e-02
1.677891e+00
5.000000e+00
5.000000e+00
1.673580e+00
2.341253e-01
3.362707e-02
5.757912e-03
1.900595e-03
1.400375e-03
2.562008e-03
4.778119e-02
1.673906e+00
5.000000e+00
5.000000e+00
1.673211e+00
2.334138e-01
3.270117e-02
4.734100e-03
8.424266e-04
3.358452e-04
1.519324e-03
4.684176e-02
1.673269e+00
5.000000e+00
5.000000e+00
1.673156e+00
2.333048e-01
3.255430e-02
4.567430e-03
6.677343e-04
1.594017e-04
1.347313e-03
4.668862e-02
1.673167e+00
5.000000e+00
5.000000e+00
1.673148e+00
2.332881e-01
3.253104e-02
4.540398e-03
6.389840e-04
1.302148e-04
1.318953e-03
4.666361e-02
1.673150e+00
5.000000e+00
5.000000e+00
2.968743e+00
1.949575e+00
1.823529e+00
1.823967e+00
1.830130e+00
1.823406e+00
1.803015e+00
1.813559e+00
3.145434e+00
5.000000e+00
5.000000e+00
5.154508e+00
5.293893e+00
5.404508e+00
5.475528e+00
5.500000e+00
5.475528e+00
5.404508e+00
5.293893e+00
5.154508e+00
5.000000e+00
