# vtk DataFile Version 3.0
9 points difference shceme(6-order bound)_
ASCII
DATASET STRUCTURED_POINTS
DIMENSIONS 81 81 1
ORIGIN 0.0 0.0 0.0
SPACING 0.0125 0.0125 1.0
POINT_DATA 6561
SCALARS Temperature double 1
LOOKUP_TABLE default
1.600000e+01
1.600000e+01
1.600000e+01
1.600000e+01
1.600000e+01
1.600000e+01
1.600000e+01
1.600000e+01
1.600000e+01
1.600000e+01
1.600000e+01
1.600000e+01
1.600000e+01
1.600000e+01
1.600000e+01
1.600000e+01
1.600000e+01
1.600000e+01
1.600000e+01
1.600000e+01
1.600000e+01
1.600000e+01
1.600000e+01
1.600000e+01
1.600000e+01
1.600000e+01
1.600000e+01
1.600000e+01
1.600000e+01
1.600000e+01
1.600000e+01
1.600000e+01
1.600000e+01
1.600000e+01
1.600000e+01
1.600000e+01
1.600000e+01
1.600000e+01
1.600000e+01
1.600000e+01
1.600000e+01
1.600000e+01
1.600000e+01
1.600000e+01
1.600000e+01
1.600000e+01
1.600000e+01
1.600000e+01
1.600000e+01
1.600000e+01
1.600000e+01
1.600000e+01
1.600000e+01
1.600000e+01
1.600000e+01
1.600000e+01
1.600000e+01
1.600000e+01
1.600000e+01
1.600000e+01
1.600000e+01
1.600000e+01
1.600000e+01
1.600000e+01
1.600000e+01
1.600000e+01
1.600000e+01
1.600000e+01
1.600000e+01
1.600000e+01
1.600000e+01
1.600000e+01
1.600000e+01
1.600000e+01
1.600000e+01
1.600000e+01
1.600000e+01
1.600000e+01
1.600000e+01
1.600000e+01
1.600000e+01
1.600000e+01
8.800000e+00
7.616000e+00
7.237120e+00
7.115878e+00
7.077081e+00
7.064666e+00
7.060693e+00
7.059422e+00
7.059015e+00
7.058885e+00
7.058843e+00
7.058830e+00
7.058826e+00
7.058824e+00
7.058824e+00
7.058824e+00
7.058824e+00
7.058824e+00
7.058824e+00
7.058824e+00
7.058824e+00
7.058824e+00
7.058824e+00
7.058824e+00
7.058824e+00
7.058824e+00
7.058824e+00
7.058824e+00
7.058824e+00
7.058824e+00
7.058824e+00
7.058824e+00
7.058824e+00
7.058824e+00
7.058824e+00
7.058824e+00
7.058824e+00
7.058824e+00
7.058824e+00
7.058824e+00
7.058824e+00
7.058824e+00
7.058824e+00
7.058824e+00
7.058824e+00
7.058824e+00
7.058824e+00
7.058824e+00
7.058824e+00
7.058824e+00
7.058824e+00
7.058824e+00
7.058824e+00
7.058824e+00
7.058824e+00
7.058824e+00
7.058824e+00
7.058824e+00
7.058824e+00
7.058824e+00
7.058824e+00
7.058824e+00
7.058824e+00
7.058824e+00
7.058824e+00
7.058824e+00
7.058824e+00
7.058824e+00
7.058824e+00
7.058824e+00
7.058824e+00
7.058824e+00
7.058824e+00
7.058824e+00
7.058824e+00
7.058824e+00
7.058824e+00
7.058824e+00
1.105882e+01
1.600000e+01
1.600000e+01
8.225280e+00
6.352179e+00
5.527126e+00
5.190898e+00
5.060197e+00
5.010978e+00
4.992862e+00
4.986307e+00
4.983968e+00
4.983141e+00
4.982852e+00
4.982752e+00
4.982717e+00
4.982705e+00
4.982701e+00
4.982700e+00
4.982699e+00
4.982699e+00
4.982699e+00
4.982699e+00
4.982699e+00
4.982699e+00
4.982699e+00
4.982699e+00
4.982699e+00
4.982699e+00
4.982699e+00
4.982699e+00
4.982699e+00
4.982699e+00
4.982699e+00
4.982699e+00
4.982699e+00
4.982699e+00
4.982699e+00
4.982699e+00
4.982699e+00
4.982699e+00
4.982699e+00
4.982699e+00
4.982699e+00
4.982699e+00
4.982699e+00
4.982699e+00
4.982699e+00
4.982699e+00
4.982699e+00
4.982699e+00
4.982699e+00
4.982699e+00
4.982699e+00
4.982699e+00
4.982699e+00
4.982699e+00
4.982699e+00
4.982699e+00
4.982699e+00
4.982699e+00
4.982699e+00
4.982699e+00
4.982699e+00
4.982699e+00
4.982699e+00
4.982699e+00
4.982699e+00
4.982699e+00
4.982699e+00
4.982699e+00
4.982699e+00
4.982699e+00
4.982699e+00
4.982699e+00
4.982699e+00
4.982699e+00
4.982699e+00
4.982699e+00
4.982699e+00
5.302699e+00
1.060039e+01
1.600000e+01
1.600000e+01
7.940264e+00
5.673774e+00
4.507734e+00
3.950548e+00
3.699588e+00
3.591626e+00
3.546819e+00
3.528747e+00
3.521625e+00
3.518871e+00
3.517823e+00
3.517429e+00
3.517283e+00
3.517230e+00
3.517210e+00
3.517203e+00
3.517201e+00
3.517200e+00
3.517199e+00
3.517199e+00
3.517199e+00
3.517199e+00
3.517199e+00
3.517199e+00
3.517199e+00
3.517199e+00
3.517199e+00
3.517199e+00
3.517199e+00
3.517199e+00
3.517199e+00
3.517199e+00
3.517199e+00
3.517199e+00
3.517199e+00
3.517199e+00
3.517199e+00
3.517199e+00
3.517199e+00
3.517199e+00
3.517199e+00
3.517199e+00
3.517199e+00
3.517199e+00
3.517199e+00
3.517199e+00
3.517199e+00
3.517199e+00
3.517199e+00
3.517199e+00
3.517199e+00
3.517199e+00
3.517199e+00
3.517199e+00
3.517199e+00
3.517199e+00
3.517199e+00
3.517199e+00
3.517199e+00
3.517199e+00
3.517199e+00
3.517199e+00
3.517199e+00
3.517199e+00
3.517199e+00
3.517199e+00
3.517199e+00
3.517199e+00
3.517199e+00
3.517199e+00
3.517199e+00
3.517199e+00
3.517199e+00
3.517199e+00
3.517199e+00
3.517199e+00
3.542799e+00
4.077207e+00
9.921048e+00
1.600000e+01
1.600000e+01
7.794786e+00
5.305779e+00
3.910270e+00
3.172048e+00
2.802297e+00
2.625768e+00
2.544858e+00
2.509029e+00
2.493618e+00
2.487152e+00
2.484496e+00
2.483425e+00
2.482999e+00
2.482833e+00
2.482768e+00
2.482744e+00
2.482734e+00
2.482731e+00
2.482730e+00
2.482729e+00
2.482729e+00
2.482729e+00
2.482729e+00
2.482729e+00
2.482729e+00
2.482729e+00
2.482729e+00
2.482729e+00
2.482729e+00
2.482729e+00
2.482729e+00
2.482729e+00
2.482729e+00
2.482729e+00
2.482729e+00
2.482729e+00
2.482729e+00
2.482729e+00
2.482729e+00
2.482729e+00
2.482729e+00
2.482729e+00
2.482729e+00
2.482729e+00
2.482729e+00
2.482729e+00
2.482729e+00
2.482729e+00
2.482729e+00
2.482729e+00
2.482729e+00
2.482729e+00
2.482729e+00
2.482729e+00
2.482729e+00
2.482729e+00
2.482729e+00
2.482729e+00
2.482729e+00
2.482729e+00
2.482729e+00
2.482729e+00
2.482729e+00
2.482729e+00
2.482729e+00
2.482729e+00
2.482729e+00
2.482729e+00
2.482729e+00
2.482729e+00
2.482729e+00
2.482729e+00
2.482729e+00
2.482729e+00
2.482729e+00
2.484777e+00
2.536377e+00
3.193455e+00
9.322817e+00
1.600000e+01
1.600000e+01
7.718794e+00
5.104268e+00
3.562878e+00
2.692182e+00
2.222059e+00
1.979077e+00
1.858443e+00
1.800669e+00
1.773867e+00
1.761775e+00
1.756453e+00
1.754160e+00
1.753192e+00
1.752789e+00
1.752625e+00
1.752558e+00
1.752532e+00
1.752521e+00
1.752517e+00
1.752515e+00
1.752515e+00
1.752515e+00
1.752515e+00
1.752515e+00
1.752515e+00
1.752515e+00
1.752515e+00
1.752515e+00
1.752515e+00
1.752515e+00
1.752515e+00
1.752515e+00
1.752515e+00
1.752515e+00
1.752515e+00
1.752515e+00
1.752515e+00
1.752515e+00
1.752515e+00
1.752515e+00
1.752515e+00
1.752515e+00
1.752515e+00
1.752515e+00
1.752515e+00
1.752515e+00
1.752515e+00
1.752515e+00
1.752515e+00
1.752515e+00
1.752515e+00
1.752515e+00
1.752515e+00
1.752515e+00
1.752515e+00
1.752515e+00
1.752515e+00
1.752515e+00
1.752515e+00
1.752515e+00
1.752515e+00
1.752515e+00
1.752515e+00
1.752515e+00
1.752515e+00
1.752515e+00
1.752515e+00
1.752515e+00
1.752515e+00
1.752515e+00
1.752515e+00
1.752515e+00
1.752515e+00
1.752515e+00
1.752678e+00
1.757514e+00
1.828304e+00
2.555698e+00
8.856601e+00
1.600000e+01
1.600000e+01
7.678356e+00
4.992973e+00
3.361588e+00
2.400001e+00
1.852760e+00
1.552628e+00
1.393922e+00
1.312854e+00
1.272746e+00
1.253472e+00
1.244451e+00
1.240327e+00
1.238482e+00
1.237672e+00
1.237323e+00
1.237174e+00
1.237112e+00
1.237087e+00
1.237076e+00
1.237072e+00
1.237070e+00
1.237069e+00
1.237069e+00
1.237069e+00
1.237069e+00
1.237069e+00
1.237069e+00
1.237069e+00
1.237069e+00
1.237069e+00
1.237069e+00
1.237069e+00
1.237069e+00
1.237069e+00
1.237069e+00
1.237069e+00
1.237069e+00
1.237069e+00
1.237069e+00
1.237069e+00
1.237069e+00
1.237069e+00
1.237069e+00
1.237069e+00
1.237069e+00
1.237069e+00
1.237069e+00
1.237069e+00
1.237069e+00
1.237069e+00
1.237069e+00
1.237069e+00
1.237069e+00
1.237069e+00
1.237069e+00
1.237069e+00
1.237069e+00
1.237069e+00
1.237069e+00
1.237069e+00
1.237069e+00
1.237069e+00
1.237069e+00
1.237069e+00
1.237069e+00
1.237069e+00
1.237069e+00
1.237069e+00
1.237069e+00
1.237069e+00
1.237069e+00
1.237069e+00
1.237069e+00
1.237082e+00
1.237526e+00
1.244891e+00
1.328479e+00
2.097729e+00
8.509842e+00
1.600000e+01
1.600000e+01
7.656512e+00
4.931031e+00
3.245076e+00
2.223573e+00
1.620637e+00
1.275179e+00
1.083351e+00
9.801191e-01
9.262230e-01
8.988783e-01
8.853693e-01
8.788575e-01
8.757886e-01
8.743718e-01
8.737300e-01
8.734442e-01
8.733189e-01
8.732648e-01
8.732418e-01
8.732321e-01
8.732280e-01
8.732264e-01
8.732257e-01
8.732254e-01
8.732253e-01
8.732253e-01
8.732252e-01
8.732252e-01
8.732252e-01
8.732252e-01
8.732252e-01
8.732252e-01
8.732252e-01
8.732252e-01
8.732252e-01
8.732252e-01
8.732252e-01
8.732252e-01
8.732252e-01
8.732252e-01
8.732252e-01
8.732252e-01
8.732252e-01
8.732252e-01
8.732252e-01
8.732252e-01
8.732252e-01
8.732252e-01
8.732252e-01
8.732252e-01
8.732252e-01
8.732252e-01
8.732252e-01
8.732252e-01
8.732252e-01
8.732252e-01
8.732252e-01
8.732252e-01
8.732252e-01
8.732252e-01
8.732252e-01
8.732252e-01
8.732252e-01
8.732252e-01
8.732252e-01
8.732252e-01
8.732252e-01
8.732252e-01
8.732252e-01
8.732252e-01
8.732252e-01
8.732252e-01
8.732263e-01
8.732663e-01
8.740113e-01
8.833292e-01
9.751884e-01
1.770399e+00
8.257495e+00
1.600000e+01
1.600000e+01
7.644566e+00
4.896318e+00
3.177614e+00
2.117637e+00
1.476148e+00
1.096744e+00
8.780542e-01
7.553814e-01
6.884332e-01
6.528670e-01
6.344545e-01
6.251525e-01
6.205595e-01
6.183395e-01
6.172875e-01
6.167981e-01
6.165742e-01
6.164733e-01
6.164286e-01
6.164090e-01
6.164005e-01
6.163969e-01
6.163954e-01
6.163947e-01
6.163945e-01
6.163944e-01
6.163943e-01
6.163943e-01
6.163943e-01
6.163943e-01
6.163943e-01
6.163943e-01
6.163943e-01
6.163943e-01
6.163943e-01
6.163943e-01
6.163943e-01
6.163943e-01
6.163943e-01
6.163943e-01
6.163943e-01
6.163943e-01
6.163943e-01
6.163943e-01
6.163943e-01
6.163943e-01
6.163943e-01
6.163943e-01
6.163943e-01
6.163943e-01
6.163943e-01
6.163943e-01
6.163943e-01
6.163943e-01
6.163943e-01
6.163943e-01
6.163943e-01
6.163943e-01
6.163943e-01
6.163943e-01
6.163943e-01
6.163943e-01
6.163943e-01
6.163943e-01
6.163943e-01
6.163943e-01
6.163943e-01
6.163943e-01
6.163943e-01
6.163943e-01
6.163943e-01
6.163944e-01
6.163979e-01
6.164716e-01
6.174822e-01
6.281956e-01
7.253812e-01
1.537264e+00
8.075955e+00
1.600000e+01
1.600000e+01
7.637967e+00
4.876746e+00
3.138512e+00
2.054268e+00
1.386884e+00
9.830969e-01
7.437383e-01
6.050373e-01
5.265704e-01
4.832510e-01
4.599073e-01
4.476203e-01
4.412969e-01
4.381114e-01
4.365387e-01
4.357767e-01
4.354140e-01
4.352442e-01
4.351659e-01
4.351303e-01
4.351143e-01
4.351073e-01
4.351042e-01
4.351028e-01
4.351023e-01
4.351020e-01
4.351019e-01
4.351019e-01
4.351019e-01
4.351018e-01
4.351018e-01
4.351018e-01
4.351018e-01
4.351018e-01
4.351018e-01
4.351018e-01
4.351018e-01
4.351018e-01
4.351018e-01
4.351018e-01
4.351018e-01
4.351018e-01
4.351018e-01
4.351018e-01
4.351018e-01
4.351018e-01
4.351018e-01
4.351018e-01
4.351018e-01
4.351018e-01
4.351018e-01
4.351018e-01
4.351018e-01
4.351018e-01
4.351018e-01
4.351018e-01
4.351018e-01
4.351018e-01
4.351018e-01
4.351018e-01
4.351018e-01
4.351018e-01
4.351018e-01
4.351018e-01
4.351018e-01
4.351018e-01
4.351018e-01
4.351018e-01
4.351018e-01
4.351018e-01
4.351018e-01
4.351022e-01
4.351093e-01
4.352163e-01
4.364369e-01
4.481115e-01
5.487544e-01
1.371633e+00
7.946209e+00
1.600000e+01
1.600000e+01
7.634289e+00
4.865649e+00
3.115813e+00
2.016458e+00
1.332058e+00
9.112995e-01
6.566628e-01
5.053687e-01
4.172836e-01
3.670893e-01
3.391086e-01
3.238496e-01
3.157054e-01
3.114482e-01
3.092668e-01
3.081701e-01
3.076286e-01
3.073657e-01
3.072400e-01
3.071809e-01
3.071535e-01
3.071409e-01
3.071352e-01
3.071327e-01
3.071316e-01
3.071311e-01
3.071309e-01
3.071308e-01
3.071307e-01
3.071307e-01
3.071307e-01
3.071307e-01
3.071307e-01
3.071307e-01
3.071307e-01
3.071307e-01
3.071307e-01
3.071307e-01
3.071307e-01
3.071307e-01
3.071307e-01
3.071307e-01
3.071307e-01
3.071307e-01
3.071307e-01
3.071307e-01
3.071307e-01
3.071307e-01
3.071307e-01
3.071307e-01
3.071307e-01
3.071307e-01
3.071307e-01
3.071307e-01
3.071307e-01
3.071307e-01
3.071307e-01
3.071307e-01
3.071307e-01
3.071307e-01
3.071307e-01
3.071307e-01
3.071307e-01
3.071307e-01
3.071307e-01
3.071307e-01
3.071307e-01
3.071307e-01
3.071307e-01
3.071307e-01
3.071307e-01
3.071314e-01
3.071425e-01
3.072785e-01
3.086551e-01
3.209806e-01
4.238948e-01
1.254166e+00
7.853851e+00
1.600000e+01
1.600000e+01
7.632224e+00
4.859328e+00
3.102613e+00
1.993932e+00
1.298538e+00
8.662456e-01
6.006641e-01
4.398462e-01
3.440782e-01
2.880850e-01
2.559771e-01
2.379296e-01
2.279870e-01
2.226171e-01
2.197723e-01
2.182932e-01
2.175378e-01
2.171586e-01
2.169713e-01
2.168802e-01
2.168365e-01
2.168159e-01
2.168062e-01
2.168018e-01
2.167998e-01
2.167989e-01
2.167985e-01
2.167983e-01
2.167982e-01
2.167982e-01
2.167982e-01
2.167982e-01
2.167982e-01
2.167982e-01
2.167982e-01
2.167981e-01
2.167981e-01
2.167981e-01
2.167981e-01
2.167981e-01
2.167981e-01
2.167981e-01
2.167981e-01
2.167981e-01
2.167981e-01
2.167981e-01
2.167981e-01
2.167981e-01
2.167981e-01
2.167981e-01
2.167981e-01
2.167981e-01
2.167981e-01
2.167981e-01
2.167981e-01
2.167981e-01
2.167981e-01
2.167981e-01
2.167981e-01
2.167981e-01
2.167981e-01
2.167981e-01
2.167981e-01
2.167981e-01
2.167981e-01
2.167981e-01
2.167981e-01
2.167981e-01
2.167981e-01
2.167982e-01
2.167982e-01
2.167993e-01
2.168142e-01
2.169735e-01
2.184619e-01
2.312256e-01
3.356502e-01
1.170961e+00
7.788273e+00
1.600000e+01
1.600000e+01
7.631058e+00
4.855710e+00
3.094924e+00
1.980526e+00
1.278115e+00
8.381314e-01
5.649019e-01
3.970988e-01
2.954111e-01
2.347232e-01
1.991052e-01
1.785683e-01
1.669414e-01
1.604795e-01
1.569534e-01
1.550637e-01
1.540687e-01
1.535535e-01
1.532910e-01
1.531594e-01
1.530944e-01
1.530627e-01
1.530475e-01
1.530403e-01
1.530369e-01
1.530353e-01
1.530346e-01
1.530343e-01
1.530341e-01
1.530340e-01
1.530340e-01
1.530340e-01
1.530340e-01
1.530340e-01
1.530340e-01
1.530340e-01
1.530340e-01
1.530340e-01
1.530340e-01
1.530340e-01
1.530340e-01
1.530340e-01
1.530340e-01
1.530340e-01
1.530340e-01
1.530340e-01
1.530340e-01
1.530340e-01
1.530340e-01
1.530340e-01
1.530340e-01
1.530340e-01
1.530340e-01
1.530340e-01
1.530340e-01
1.530340e-01
1.530340e-01
1.530340e-01
1.530340e-01
1.530340e-01
1.530340e-01
1.530340e-01
1.530340e-01
1.530340e-01
1.530340e-01
1.530340e-01
1.530340e-01
1.530340e-01
1.530340e-01
1.530340e-01
1.530341e-01
1.530357e-01
1.530538e-01
1.532308e-01
1.547976e-01
1.678564e-01
2.732970e-01
1.112076e+00
7.741789e+00
1.600000e+01
1.600000e+01
7.630395e+00
4.853632e+00
3.090437e+00
1.972551e+00
1.265706e+00
8.206692e-01
5.422012e-01
3.694010e-01
2.632857e-01
1.989241e-01
1.604327e-01
1.377641e-01
1.246296e-01
1.171465e-01
1.129554e-01
1.106479e-01
1.093987e-01
1.087335e-01
1.083849e-01
1.082050e-01
1.081136e-01
1.080678e-01
1.080451e-01
1.080341e-01
1.080287e-01
1.080262e-01
1.080250e-01
1.080245e-01
1.080242e-01
1.080241e-01
1.080240e-01
1.080240e-01
1.080240e-01
1.080240e-01
1.080240e-01
1.080240e-01
1.080240e-01
1.080240e-01
1.080240e-01
1.080240e-01
1.080240e-01
1.080240e-01
1.080240e-01
1.080240e-01
1.080240e-01
1.080240e-01
1.080240e-01
1.080240e-01
1.080240e-01
1.080240e-01
1.080240e-01
1.080240e-01
1.080240e-01
1.080240e-01
1.080240e-01
1.080240e-01
1.080240e-01
1.080240e-01
1.080240e-01
1.080240e-01
1.080240e-01
1.080240e-01
1.080240e-01
1.080240e-01
1.080240e-01
1.080240e-01
1.080240e-01
1.080240e-01
1.080240e-01
1.080240e-01
1.080242e-01
1.080262e-01
1.080469e-01
1.082370e-01
1.098580e-01
1.231162e-01
2.292469e-01
1.070430e+00
7.708876e+00
1.600000e+01
1.600000e+01
7.630017e+00
4.852434e+00
3.087814e+00
1.967808e+00
1.258182e+00
8.098650e-01
5.278668e-01
3.515647e-01
2.422181e-01
1.750630e-01
1.342937e-01
1.098635e-01
9.543062e-02
8.703147e-02
8.221935e-02
7.950585e-02
7.799995e-02
7.717737e-02
7.673499e-02
7.650067e-02
7.637838e-02
7.631546e-02
7.628353e-02
7.626754e-02
7.625963e-02
7.625577e-02
7.625390e-02
7.625301e-02
7.625259e-02
7.625240e-02
7.625231e-02
7.625226e-02
7.625224e-02
7.625224e-02
7.625223e-02
7.625223e-02
7.625223e-02
7.625223e-02
7.625223e-02
7.625223e-02
7.625223e-02
7.625223e-02
7.625223e-02
7.625223e-02
7.625223e-02
7.625223e-02
7.625223e-02
7.625223e-02
7.625223e-02
7.625223e-02
7.625223e-02
7.625223e-02
7.625223e-02
7.625223e-02
7.625223e-02
7.625223e-02
7.625223e-02
7.625223e-02
7.625223e-02
7.625223e-02
7.625223e-02
7.625223e-02
7.625223e-02
7.625223e-02
7.625223e-02
7.625223e-02
7.625223e-02
7.625223e-02
7.625223e-02
7.625225e-02
7.625247e-02
7.625486e-02
7.627762e-02
7.647707e-02
7.813549e-02
9.152893e-02
1.981320e-01
1.040990e+00
7.685592e+00
1.600000e+01
1.600000e+01
7.629800e+00
4.851742e+00
3.086277e+00
1.964987e+00
1.253628e+00
8.032017e-01
5.188563e-01
3.401415e-01
2.284853e-01
1.592564e-01
1.167301e-01
9.088790e-02
7.537352e-02
6.618159e-02
6.081129e-02
5.771903e-02
5.596473e-02
5.498427e-02
5.444441e-02
5.415150e-02
5.399485e-02
5.391225e-02
5.386929e-02
5.384724e-02
5.383606e-02
5.383047e-02
5.382770e-02
5.382635e-02
5.382569e-02
5.382538e-02
5.382523e-02
5.382516e-02
5.382513e-02
5.382512e-02
5.382511e-02
5.382511e-02
5.382510e-02
5.382510e-02
5.382510e-02
5.382510e-02
5.382510e-02
5.382510e-02
5.382510e-02
5.382510e-02
5.382510e-02
5.382510e-02
5.382510e-02
5.382510e-02
5.382510e-02
5.382510e-02
5.382510e-02
5.382510e-02
5.382510e-02
5.382510e-02
5.382510e-02
5.382510e-02
5.382510e-02
5.382510e-02
5.382510e-02
5.382510e-02
5.382510e-02
5.382510e-02
5.382510e-02
5.382510e-02
5.382510e-02
5.382510e-02
5.382510e-02
5.382510e-02
5.382510e-02
5.382513e-02
5.382540e-02
5.382809e-02
5.385238e-02
5.405847e-02
5.574255e-02
6.922827e-02
1.761568e-01
1.020185e+00
7.669128e+00
1.600000e+01
1.600000e+01
7.629675e+00
4.851340e+00
3.085376e+00
1.963308e+00
1.250875e+00
7.991032e-01
5.132145e-01
3.328612e-01
2.195827e-01
1.488457e-01
1.049958e-01
7.805108e-02
6.166143e-02
5.180455e-02
4.594912e-02
4.251589e-02
4.053006e-02
3.939732e-02
3.876021e-02
3.840689e-02
3.821366e-02
3.810942e-02
3.805395e-02
3.802481e-02
3.800970e-02
3.800195e-02
3.799804e-02
3.799607e-02
3.799510e-02
3.799463e-02
3.799440e-02
3.799429e-02
3.799424e-02
3.799421e-02
3.799420e-02
3.799419e-02
3.799419e-02
3.799419e-02
3.799419e-02
3.799419e-02
3.799419e-02
3.799419e-02
3.799419e-02
3.799419e-02
3.799419e-02
3.799419e-02
3.799419e-02
3.799419e-02
3.799419e-02
3.799419e-02
3.799419e-02
3.799419e-02
3.799419e-02
3.799419e-02
3.799419e-02
3.799419e-02
3.799419e-02
3.799419e-02
3.799419e-02
3.799419e-02
3.799419e-02
3.799419e-02
3.799419e-02
3.799419e-02
3.799419e-02
3.799419e-02
3.799419e-02
3.799419e-02
3.799419e-02
3.799422e-02
3.799454e-02
3.799746e-02
3.802288e-02
3.823363e-02
3.993531e-02
5.348429e-02
1.606382e-01
1.005486e+00
7.657491e+00
1.600000e+01
1.600000e+01
7.629603e+00
4.851106e+00
3.084846e+00
1.962309e+00
1.249212e+00
7.965880e-01
5.096939e-01
3.282414e-01
2.138403e-01
1.420258e-01
9.719867e-02
6.941250e-02
5.233211e-02
4.193258e-02
3.566778e-02
3.193711e-02
2.974255e-02
2.846798e-02
2.773736e-02
2.732407e-02
2.709338e-02
2.696630e-02
2.689722e-02
2.686014e-02
2.684049e-02
2.683020e-02
2.682488e-02
2.682216e-02
2.682078e-02
2.682009e-02
2.681975e-02
2.681958e-02
2.681950e-02
2.681946e-02
2.681944e-02
2.681944e-02
2.681943e-02
2.681943e-02
2.681943e-02
2.681943e-02
2.681943e-02
2.681943e-02
2.681943e-02
2.681943e-02
2.681943e-02
2.681943e-02
2.681943e-02
2.681943e-02
2.681943e-02
2.681943e-02
2.681943e-02
2.681943e-02
2.681943e-02
2.681943e-02
2.681943e-02
2.681943e-02
2.681943e-02
2.681943e-02
2.681943e-02
2.681943e-02
2.681943e-02
2.681943e-02
2.681943e-02
2.681943e-02
2.681943e-02
2.681943e-02
2.681943e-02
2.681943e-02
2.681943e-02
2.681947e-02
2.681982e-02
2.682292e-02
2.684914e-02
2.706314e-02
2.877694e-02
4.236947e-02
1.496801e-01
9.951035e-01
7.649269e+00
1.600000e+01
1.600000e+01
7.629562e+00
4.850969e+00
3.084534e+00
1.961715e+00
1.248208e+00
7.950472e-01
5.075035e-01
3.253211e-01
2.101530e-01
1.375803e-01
9.204435e-02
6.362866e-02
4.601505e-02
3.518323e-02
2.858190e-02
2.459891e-02
2.222167e-02
2.081908e-02
2.000142e-02
1.953062e-02
1.926291e-02
1.911260e-02
1.902926e-02
1.898362e-02
1.895894e-02
1.894575e-02
1.893879e-02
1.893516e-02
1.893328e-02
1.893232e-02
1.893184e-02
1.893159e-02
1.893147e-02
1.893142e-02
1.893139e-02
1.893137e-02
1.893137e-02
1.893136e-02
1.893136e-02
1.893136e-02
1.893136e-02
1.893136e-02
1.893136e-02
1.893136e-02
1.893136e-02
1.893136e-02
1.893136e-02
1.893136e-02
1.893136e-02
1.893136e-02
1.893136e-02
1.893136e-02
1.893136e-02
1.893136e-02
1.893136e-02
1.893136e-02
1.893136e-02
1.893136e-02
1.893136e-02
1.893136e-02
1.893136e-02
1.893136e-02
1.893136e-02
1.893136e-02
1.893136e-02
1.893136e-02
1.893136e-02
1.893136e-02
1.893137e-02
1.893141e-02
1.893178e-02
1.893502e-02
1.896182e-02
1.917807e-02
2.090021e-02
3.452286e-02
1.419428e-01
9.877708e-01
7.643461e+00
1.600000e+01
1.600000e+01
7.629537e+00
4.850890e+00
3.084350e+00
1.961360e+00
1.247603e+00
7.941050e-01
5.061442e-01
3.234814e-01
2.077951e-01
1.346959e-01
8.865362e-02
5.977508e-02
4.175779e-02
3.058888e-02
2.371722e-02
1.952545e-02
1.699252e-02
1.547756e-02
1.458125e-02
1.405694e-02
1.375381e-02
1.358062e-02
1.348286e-02
1.342833e-02
1.339828e-02
1.338191e-02
1.337310e-02
1.336841e-02
1.336594e-02
1.336465e-02
1.336399e-02
1.336365e-02
1.336348e-02
1.336340e-02
1.336335e-02
1.336333e-02
1.336332e-02
1.336332e-02
1.336332e-02
1.336331e-02
1.336331e-02
1.336331e-02
1.336331e-02
1.336331e-02
1.336331e-02
1.336331e-02
1.336331e-02
1.336331e-02
1.336331e-02
1.336331e-02
1.336331e-02
1.336331e-02
1.336331e-02
1.336331e-02
1.336331e-02
1.336331e-02
1.336331e-02
1.336331e-02
1.336331e-02
1.336331e-02
1.336331e-02
1.336331e-02
1.336331e-02
1.336331e-02
1.336331e-02
1.336331e-02
1.336331e-02
1.336331e-02
1.336332e-02
1.336336e-02
1.336376e-02
1.336710e-02
1.339430e-02
1.361212e-02
1.534002e-02
2.898356e-02
1.364799e-01
9.825925e-01
7.639359e+00
1.600000e+01
1.600000e+01
7.629523e+00
4.850843e+00
3.084242e+00
1.961149e+00
1.247238e+00
7.935294e-01
5.053025e-01
3.223260e-01
2.062930e-01
1.328323e-01
8.643319e-02
5.721956e-02
3.890187e-02
2.747504e-02
2.039067e-02
1.602994e-02
1.336743e-02
1.175630e-02
1.079078e-02
1.021808e-02
9.882008e-03
9.686975e-03
9.575063e-03
9.511577e-03
9.475972e-03
9.456232e-03
9.445410e-03
9.439544e-03
9.436399e-03
9.434730e-03
9.433855e-03
9.433400e-03
9.433166e-03
9.433047e-03
9.432987e-03
9.432956e-03
9.432942e-03
9.432934e-03
9.432931e-03
9.432929e-03
9.432928e-03
9.432928e-03
9.432928e-03
9.432928e-03
9.432927e-03
9.432927e-03
9.432927e-03
9.432927e-03
9.432927e-03
9.432927e-03
9.432927e-03
9.432927e-03
9.432927e-03
9.432927e-03
9.432927e-03
9.432927e-03
9.432927e-03
9.432927e-03
9.432927e-03
9.432927e-03
9.432927e-03
9.432927e-03
9.432927e-03
9.432927e-03
9.432927e-03
9.432927e-03
9.432927e-03
9.432928e-03
9.432933e-03
9.432982e-03
9.433395e-03
9.436803e-03
9.464291e-03
9.683198e-03
1.141509e-02
2.507316e-02
1.326231e-01
9.789361e-01
7.636462e+00
1.600000e+01
1.600000e+01
7.629515e+00
4.850816e+00
3.084178e+00
1.961023e+00
1.247018e+00
7.931783e-01
5.047823e-01
3.216023e-01
2.053391e-01
1.316330e-01
8.498532e-02
5.553237e-02
3.699452e-02
2.537366e-02
1.812499e-02
1.363022e-02
1.086215e-02
9.170558e-03
8.145577e-03
7.530191e-03
7.164308e-03
6.948976e-03
6.823577e-03
6.751332e-03
6.710162e-03
6.686957e-03
6.674020e-03
6.666885e-03
6.662993e-03
6.660892e-03
6.659769e-03
6.659176e-03
6.658865e-03
6.658704e-03
6.658621e-03
6.658579e-03
6.658558e-03
6.658547e-03
6.658542e-03
6.658539e-03
6.658538e-03
6.658538e-03
6.658537e-03
6.658537e-03
6.658537e-03
6.658537e-03
6.658537e-03
6.658537e-03
6.658537e-03
6.658537e-03
6.658537e-03
6.658537e-03
6.658537e-03
6.658537e-03
6.658537e-03
6.658537e-03
6.658537e-03
6.658537e-03
6.658537e-03
6.658537e-03
6.658537e-03
6.658537e-03
6.658537e-03
6.658537e-03
6.658537e-03
6.658537e-03
6.658537e-03
6.658538e-03
6.658544e-03
6.658594e-03
6.659019e-03
6.662478e-03
6.690166e-03
6.909827e-03
8.644481e-03
2.231270e-02
1.299002e-01
9.763544e-01
7.634416e+00
1.600000e+01
1.600000e+01
7.629510e+00
4.850800e+00
3.084140e+00
1.960948e+00
1.246885e+00
7.929643e-01
5.044613e-01
3.211501e-01
2.047354e-01
1.308638e-01
8.404496e-02
5.442313e-02
3.572613e-02
2.396150e-02
1.658799e-02
1.198880e-02
9.136364e-03
7.378833e-03
6.303871e-03
5.651691e-03
5.259453e-03
5.025728e-03
4.887802e-03
4.807222e-03
4.760626e-03
4.733961e-03
4.718861e-03
4.710400e-03
4.705708e-03
4.703133e-03
4.701734e-03
4.700982e-03
4.700581e-03
4.700370e-03
4.700260e-03
4.700203e-03
4.700174e-03
4.700159e-03
4.700151e-03
4.700147e-03
4.700146e-03
4.700145e-03
4.700144e-03
4.700144e-03
4.700144e-03
4.700144e-03
4.700144e-03
4.700144e-03
4.700144e-03
4.700144e-03
4.700144e-03
4.700144e-03
4.700144e-03
4.700144e-03
4.700144e-03
4.700144e-03
4.700144e-03
4.700144e-03
4.700144e-03
4.700144e-03
4.700144e-03
4.700144e-03
4.700144e-03
4.700144e-03
4.700144e-03
4.700144e-03
4.700144e-03
4.700145e-03
4.700151e-03
4.700203e-03
4.700637e-03
4.704132e-03
4.731960e-03
4.952143e-03
6.688722e-03
2.036403e-02
1.279779e-01
9.745316e-01
7.632972e+00
1.600000e+01
1.600000e+01
7.629507e+00
4.850790e+00
3.084117e+00
1.960903e+00
1.246805e+00
7.928339e-01
5.042636e-01
3.208681e-01
2.043542e-01
1.303722e-01
8.343645e-02
5.369675e-02
3.488609e-02
2.301636e-02
1.554941e-02
1.087018e-02
7.951503e-03
6.140926e-03
5.024777e-03
4.341536e-03
3.926510e-03
3.676497e-03
3.527212e-03
3.438893e-03
3.387141e-03
3.357112e-03
3.339860e-03
3.330049e-03
3.324525e-03
3.321446e-03
3.319747e-03
3.318818e-03
3.318316e-03
3.318047e-03
3.317904e-03
3.317829e-03
3.317790e-03
3.317769e-03
3.317759e-03
3.317754e-03
3.317751e-03
3.317750e-03
3.317749e-03
3.317749e-03
3.317749e-03
3.317749e-03
3.317749e-03
3.317749e-03
3.317749e-03
3.317749e-03
3.317749e-03
3.317749e-03
3.317749e-03
3.317749e-03
3.317749e-03
3.317749e-03
3.317749e-03
3.317749e-03
3.317749e-03
3.317749e-03
3.317749e-03
3.317749e-03
3.317749e-03
3.317749e-03
3.317749e-03
3.317749e-03
3.317749e-03
3.317749e-03
3.317756e-03
3.317810e-03
3.318250e-03
3.321770e-03
3.349695e-03
3.570243e-03
5.308162e-03
1.898843e-02
1.266209e-01
9.732448e-01
7.631952e+00
1.600000e+01
1.600000e+01
7.629506e+00
4.850785e+00
3.084104e+00
1.960876e+00
1.246757e+00
7.927546e-01
5.041420e-01
3.206927e-01
2.041142e-01
1.300589e-01
8.304403e-02
5.322285e-02
3.433191e-02
2.238629e-02
1.485035e-02
1.011064e-02
7.140774e-03
5.288247e-03
4.138765e-03
3.429799e-03
2.995461e-03
2.731324e-03
2.571963e-03
2.476622e-03
2.420084e-03
2.386863e-03
2.367524e-03
2.356374e-03
2.350007e-03
2.346407e-03
2.344390e-03
2.343272e-03
2.342657e-03
2.342323e-03
2.342143e-03
2.342046e-03
2.341995e-03
2.341969e-03
2.341955e-03
2.341948e-03
2.341944e-03
2.341942e-03
2.341941e-03
2.341941e-03
2.341940e-03
2.341940e-03
2.341940e-03
2.341940e-03
2.341940e-03
2.341940e-03
2.341940e-03
2.341940e-03
2.341940e-03
2.341940e-03
2.341940e-03
2.341940e-03
2.341940e-03
2.341940e-03
2.341940e-03
2.341940e-03
2.341940e-03
2.341940e-03
2.341940e-03
2.341940e-03
2.341940e-03
2.341940e-03
2.341940e-03
2.341941e-03
2.341948e-03
2.342003e-03
2.342447e-03
2.345985e-03
2.373979e-03
2.594780e-03
4.333635e-03
1.801739e-02
1.256629e-01
9.723363e-01
7.631232e+00
1.600000e+01
1.600000e+01
7.629505e+00
4.850781e+00
3.084096e+00
1.960860e+00
1.246728e+00
7.927063e-01
5.040672e-01
3.205837e-01
2.039635e-01
1.298598e-01
8.279177e-02
5.291476e-02
3.396767e-02
2.196785e-02
1.438158e-02
9.596799e-03
6.587934e-03
4.702741e-03
3.526725e-03
2.796826e-03
2.346422e-03
2.070273e-03
1.902151e-03
1.800571e-03
1.739689e-03
1.703505e-03
1.682188e-03
1.669742e-03
1.662542e-03
1.658415e-03
1.656072e-03
1.654754e-03
1.654019e-03
1.653613e-03
1.653392e-03
1.653271e-03
1.653207e-03
1.653172e-03
1.653154e-03
1.653144e-03
1.653139e-03
1.653137e-03
1.653136e-03
1.653135e-03
1.653135e-03
1.653134e-03
1.653134e-03
1.653134e-03
1.653134e-03
1.653134e-03
1.653134e-03
1.653134e-03
1.653134e-03
1.653134e-03
1.653134e-03
1.653134e-03
1.653134e-03
1.653134e-03
1.653134e-03
1.653134e-03
1.653134e-03
1.653134e-03
1.653134e-03
1.653134e-03
1.653134e-03
1.653134e-03
1.653134e-03
1.653135e-03
1.653142e-03
1.653198e-03
1.653646e-03
1.657196e-03
1.685237e-03
1.906214e-03
3.645725e-03
1.733192e-02
1.249866e-01
9.716949e-01
7.630723e+00
1.600000e+01
1.600000e+01
7.629504e+00
4.850779e+00
3.084091e+00
1.960850e+00
1.246710e+00
7.926769e-01
5.040213e-01
3.205160e-01
2.038689e-01
1.297336e-01
8.263009e-02
5.271511e-02
3.372909e-02
2.169096e-02
1.406838e-02
9.250419e-03
6.212236e-03
4.301965e-03
3.105146e-03
2.358483e-03
1.894937e-03
1.608753e-03
1.433157e-03
1.326140e-03
1.261391e-03
1.222517e-03
1.199366e-03
1.185693e-03
1.177688e-03
1.173042e-03
1.170370e-03
1.168847e-03
1.167987e-03
1.167505e-03
1.167238e-03
1.167091e-03
1.167011e-03
1.166967e-03
1.166944e-03
1.166932e-03
1.166925e-03
1.166922e-03
1.166920e-03
1.166919e-03
1.166919e-03
1.166919e-03
1.166918e-03
1.166918e-03
1.166918e-03
1.166918e-03
1.166918e-03
1.166918e-03
1.166918e-03
1.166918e-03
1.166918e-03
1.166918e-03
1.166918e-03
1.166918e-03
1.166918e-03
1.166918e-03
1.166918e-03
1.166918e-03
1.166918e-03
1.166918e-03
1.166918e-03
1.166918e-03
1.166918e-03
1.166919e-03
1.166926e-03
1.166983e-03
1.167433e-03
1.170992e-03
1.199066e-03
1.420167e-03
3.160136e-03
1.684805e-02
1.245092e-01
9.712421e-01
7.630365e+00
1.600000e+01
1.600000e+01
7.629504e+00
4.850778e+00
3.084089e+00
1.960845e+00
1.246700e+00
7.926591e-01
5.039932e-01
3.204742e-01
2.038098e-01
1.296538e-01
8.252674e-02
5.258613e-02
3.357336e-02
2.150838e-02
1.385987e-02
9.017743e-03
5.957784e-03
4.028510e-03
2.815606e-03
2.055715e-03
1.581588e-03
1.287157e-03
1.105292e-03
9.936220e-04
9.254968e-04
8.842250e-04
8.594058e-04
8.445959e-04
8.358296e-04
8.306837e-04
8.276883e-04
8.259598e-04
8.249710e-04
8.244102e-04
8.240949e-04
8.239192e-04
8.238222e-04
8.237690e-04
8.237401e-04
8.237245e-04
8.237162e-04
8.237118e-04
8.237095e-04
8.237083e-04
8.237077e-04
8.237073e-04
8.237072e-04
8.237071e-04
8.237071e-04
8.237070e-04
8.237070e-04
8.237070e-04
8.237070e-04
8.237070e-04
8.237070e-04
8.237070e-04
8.237070e-04
8.237070e-04
8.237070e-04
8.237070e-04
8.237070e-04
8.237070e-04
8.237070e-04
8.237070e-04
8.237070e-04
8.237070e-04
8.237071e-04
8.237080e-04
8.237151e-04
8.237720e-04
8.242234e-04
8.277887e-04
8.558862e-04
1.077073e-03
2.817364e-03
1.650648e-02
1.241722e-01
9.709225e-01
7.630111e+00
1.600000e+01
1.600000e+01
7.629503e+00
4.850777e+00
3.084087e+00
1.960841e+00
1.246693e+00
7.926482e-01
5.039759e-01
3.204483e-01
2.037728e-01
1.296034e-01
8.246085e-02
5.250304e-02
3.347201e-02
2.138838e-02
1.372153e-02
8.861981e-03
5.786025e-03
3.842523e-03
2.617339e-03
1.847153e-03