# vtk DataFile Version 3.0
9 points difference shceme(6-order bound)_
ASCII
DATASET STRUCTURED_POINTS
DIMENSIONS 21 21 1
ORIGIN 0.0 0.0 0.0
SPACING 0.05 0.05 1.0
POINT_DATA 441
SCALARS Temperature double 1
LOOKUP_TABLE default
5.000000e+00
5.000000e+00
5.000000e+00
5.000000e+00
5.000000e+00
5.000000e+00
5.000000e+00
5.000000e+00
5.000000e+00
5.000000e+00
5.000000e+00
5.000000e+00
5.000000e+00
5.000000e+00
5.000000e+00
5.000000e+00
5.000000e+00
5.000000e+00
5.000000e+00
5.000000e+00
5.000000e+00
5.000000e+00
2.750000e+00
1.775000e+00
1.677500e+00
1.667750e+00
1.666775e+00
1.666678e+00
1.666668e+00
1.666667e+00
1.666667e+00
1.666667e+00
1.666667e+00
1.666667e+00
1.666667e+00
1.666667e+00
1.666667e+00
1.666667e+00
1.666667e+00
1.666667e+00
2.916667e+00
5.000000e+00
5.000000e+00
1.819375e+00
4.701250e-01
3.008313e-01
2.804650e-01
2.780847e-01
2.778123e-01
2.777816e-01
2.777782e-01
2.777778e-01
2.777778e-01
2.777778e-01
2.777778e-01
2.777778e-01
2.777778e-01
2.777778e-01
2.777778e-01
2.777778e-01
3.090278e-01
1.864236e+00
5.000000e+00
5.000000e+00
1.693691e+00
2.693867e-01
7.578655e-02
5.009805e-02
4.677521e-02
4.635541e-02
4.630346e-02
4.629715e-02
4.629640e-02
4.629631e-02
4.629630e-02
4.629630e-02
4.629630e-02
4.629630e-02
4.629630e-02
4.629630e-02
4.707755e-02
8.916088e-02
1.703065e+00
5.000000e+00
5.000000e+00
1.676104e+00
2.387860e-01
3.944437e-02
1.201829e-02
8.290686e-03
7.791576e-03
7.725818e-03
7.717294e-03
7.716206e-03
7.716069e-03
7.716052e-03
7.716050e-03
7.716049e-03
7.716049e-03
7.716049e-03
7.735581e-03
8.867742e-03
5.355644e-02
1.677891e+00
5.000000e+00
5.000000e+00
1.673580e+00
2.341253e-01
3.362707e-02
5.757912e-03
1.900106e-03
1.369581e-03
1.297262e-03
1.287506e-03
1.286205e-03
1.286034e-03
1.286012e-03
1.286009e-03
1.286008e-03
1.286008e-03
1.286497e-03
1.316803e-03
2.550755e-03
4.777969e-02
1.673906e+00
5.000000e+00
5.000000e+00
1.673211e+00
2.334138e-01
3.270117e-02
4.734088e-03
8.416067e-04
3.010530e-04
2.262586e-04
2.159631e-04
2.145553e-04
2.143643e-04
2.143386e-04
2.143352e-04
2.143348e-04
2.143469e-04
2.151546e-04
2.491270e-04
1.507401e-03
4.684013e-02
1.673269e+00
5.000000e+00
5.000000e+00
1.673156e+00
2.333048e-01
3.255430e-02
4.567408e-03
6.667800e-04
1.234799e-04
4.789926e-05
3.740659e-05
3.595438e-05
3.575422e-05
3.572678e-05
3.572304e-05
3.572283e-05
3.574421e-05
3.667673e-05
7.164425e-05
1.335136e-03
4.668694e-02
1.673167e+00
5.000000e+00
5.000000e+00
1.673148e+00
2.332881e-01
3.253104e-02
4.540372e-03
6.379874e-04
9.401372e-05
1.821346e-05
7.658346e-06
6.190293e-06
5.986480e-06
5.958257e-06
5.954370e-06
5.954402e-06
5.979850e-06
6.950370e-06
4.215478e-05
1.306694e-03
4.666191e-02
1.673150e+00
5.000000e+00
5.000000e+00
1.673147e+00
2.332855e-01
3.252737e-02
4.535999e-03
6.332583e-04
8.913223e-05
1.327637e-05
2.703565e-06
1.230506e-06
1.025412e-06
9.968882e-07
9.929422e-07
9.930899e-07
1.019913e-06
2.000394e-06
3.725662e-05
1.301997e-03
4.665781e-02
1.673147e+00
5.000000e+00
5.000000e+00
1.673147e+00
2.332851e-01
3.252678e-02
4.535294e-03
6.324835e-04
8.832494e-05
1.245603e-05
1.878631e-06
4.041382e-07
1.986399e-07
1.700117e-07
1.660448e-07
1.662349e-07
1.934519e-07
1.176298e-06
3.644322e-05
1.301221e-03
4.665714e-02
1.673147e+00
5.000000e+00
5.000000e+00
1.673147e+00
2.332850e-01
3.252669e-02
4.535180e-03
6.323568e-04
8.819167e-05
1.231986e-05
1.741353e-06
2.664809e-07
6.086583e-08
3.220487e-08
2.823113e-08
2.843402e-08
5.575191e-08
1.039122e-06
3.630816e-05
1.301092e-03
4.665703e-02
1.673147e+00
5.000000e+00
5.000000e+00
1.673147e+00
2.332850e-01
3.252668e-02
4.535162e-03
6.323362e-04
8.816970e-05
1.229728e-05
1.718522e-06
2.435558e-07
3.790930e-08
9.238841e-09
5.262970e-09
5.469275e-09
3.281101e-08
1.016291e-06
3.628573e-05
1.301071e-03
4.665701e-02
1.673147e+00
5.000000e+00
5.000000e+00
1.673147e+00
2.332850e-01
3.252667e-02
4.535159e-03
6.323328e-04
8.816609e-05
1.229354e-05
1.714727e-06
2.397391e-07
3.408470e-08
5.411661e-09
1.435166e-09
1.642294e-09
2.898934e-08
1.012492e-06
3.628201e-05
1.301068e-03
4.665700e-02
1.673147e+00
5.000000e+00
5.000000e+00
1.673147e+00
2.332850e-01
3.252667e-02
4.535158e-03
6.323323e-04
8.816549e-05
1.229292e-05
1.714097e-06
2.391039e-07
3.344763e-08
4.773926e-09
7.972581e-10
1.004568e-09
2.835274e-08
1.011859e-06
3.628139e-05
1.301067e-03
4.665700e-02
1.673147e+00
5.000000e+00
5.000000e+00
1.673147e+00
2.332850e-01
3.252667e-02
4.535158e-03
6.323322e-04
8.816539e-05
1.229282e-05
1.713993e-06
2.389983e-07
3.334154e-08
4.667668e-09
6.909550e-10
8.983022e-10
2.824670e-08
1.011754e-06
3.628129e-05
1.301067e-03
4.665700e-02
1.673147e+00
5.000000e+00
5.000000e+00
1.673147e+00
2.332850e-01
3.252667e-02
4.535158e-03
6.323321e-04
8.816538e-05
1.229280e-05
1.713975e-06
2.389807e-07
3.332387e-08
4.649966e-09
6.732414e-10
8.805958e-10
2.822904e-08
1.011737e-06
3.628127e-05
1.301067e-03
4.665700e-02
1.673147e+00
5.000000e+00
5.000000e+00
1.673147e+00
2.332850e-01
3.252667e-02
4.535158e-03
6.323321e-04
8.816538e-05
1.229280e-05
1.713972e-06
2.389778e-07
3.332093e-08
4.647018e-09
6.702900e-10
8.776457e-10
2.822610e-08
1.011734e-06
3.628127e-05
1.301067e-03
4.665700e-02
1.673147e+00
5.000000e+00
5.000000e+00
1.673147e+00
2.332850e-01
3.252667e-02
4.535158e-03
6.323321e-04
8.816538e-05
1.229280e-05
1.713972e-06
2.389773e-07
3.332044e-08
4.646527e-09
6.697982e-10
8.771542e-10
2.822561e-08
1.011733e-06
3.628127e-05
1.301067e-03
4.665700e-02
1.673147e+00
5.000000e+00
5.000000e+00
2.946516e+00
1.906784e+00
1.767696e+00
1.765858e+00
1.782395e+00
1.799119e+00
1.813018e+00
1.823375e+00
1.829883e+00
1.832373e+00
1.830783e+00
1.825151e+00
1.815618e+00
1.802416e+00
1.785873e+00
1.766429e+00
1.745759e+00
1.767265e+00
3.118576e+00
5.000000e+00
5.000000e+00
5.078217e+00
5.154508e+00
5.226995e+00
5.293893e+00
5.353553e+00
5.404508e+00
5.445503e+00
5.475528e+00
5.493844e+00
5.500000e+00
5.493844e+00
5.475528e+00
5.445503e+00
5.404508e+00
5.353553e+00
5.293893e+00
5.226995e+00
5.154508e+00
5.078217e+00
5.000000e+00
