# vtk DataFile Version 3.0
9 points difference shceme(6-order bound)_
ASCII
DATASET STRUCTURED_POINTS
DIMENSIONS 81 81 1
ORIGIN 0.0 0.0 0.0
SPACING 0.0125 0.0125 1.0
POINT_DATA 6561
SCALARS Temperature double 1
LOOKUP_TABLE default
1.000000e+01
1.000000e+01
1.000000e+01
1.000000e+01
1.000000e+01
1.000000e+01
1.000000e+01
1.000000e+01
1.000000e+01
1.000000e+01
1.000000e+01
1.000000e+01
1.000000e+01
1.000000e+01
1.000000e+01
1.000000e+01
1.000000e+01
1.000000e+01
1.000000e+01
1.000000e+01
1.000000e+01
1.000000e+01
1.000000e+01
1.000000e+01
1.000000e+01
1.000000e+01
1.000000e+01
1.000000e+01
1.000000e+01
1.000000e+01
1.000000e+01
1.000000e+01
1.000000e+01
1.000000e+01
1.000000e+01
1.000000e+01
1.000000e+01
1.000000e+01
1.000000e+01
1.000000e+01
1.000000e+01
1.000000e+01
1.000000e+01
1.000000e+01
1.000000e+01
1.000000e+01
1.000000e+01
1.000000e+01
1.000000e+01
1.000000e+01
1.000000e+01
1.000000e+01
1.000000e+01
1.000000e+01
1.000000e+01
1.000000e+01
1.000000e+01
1.000000e+01
1.000000e+01
1.000000e+01
1.000000e+01
1.000000e+01
1.000000e+01
1.000000e+01
1.000000e+01
1.000000e+01
1.000000e+01
1.000000e+01
1.000000e+01
1.000000e+01
1.000000e+01
1.000000e+01
1.000000e+01
1.000000e+01
1.000000e+01
1.000000e+01
1.000000e+01
1.000000e+01
1.000000e+01
1.000000e+01
1.000000e+01
1.000000e+01
1.000013e+01
1.000027e+01
1.000040e+01
1.000053e+01
1.000066e+01
1.000079e+01
1.000092e+01
1.000105e+01
1.000118e+01
1.000130e+01
1.000142e+01
1.000154e+01
1.000166e+01
1.000178e+01
1.000189e+01
1.000200e+01
1.000211e+01
1.000221e+01
1.000231e+01
1.000241e+01
1.000250e+01
1.000259e+01
1.000267e+01
1.000275e+01
1.000283e+01
1.000290e+01
1.000297e+01
1.000303e+01
1.000309e+01
1.000314e+01
1.000319e+01
1.000323e+01
1.000327e+01
1.000331e+01
1.000334e+01
1.000336e+01
1.000338e+01
1.000339e+01
1.000340e+01
1.000340e+01
1.000340e+01
1.000339e+01
1.000338e+01
1.000336e+01
1.000334e+01
1.000331e+01
1.000327e+01
1.000323e+01
1.000319e+01
1.000314e+01
1.000309e+01
1.000303e+01
1.000297e+01
1.000290e+01
1.000283e+01
1.000275e+01
1.000267e+01
1.000259e+01
1.000250e+01
1.000241e+01
1.000231e+01
1.000221e+01
1.000211e+01
1.000200e+01
1.000189e+01
1.000178e+01
1.000166e+01
1.000154e+01
1.000142e+01
1.000130e+01
1.000118e+01
1.000105e+01
1.000092e+01
1.000079e+01
1.000066e+01
1.000053e+01
1.000040e+01
1.000027e+01
1.000013e+01
1.000000e+01
1.000000e+01
1.000027e+01
1.000053e+01
1.000080e+01
1.000106e+01
1.000133e+01
1.000159e+01
1.000185e+01
1.000210e+01
1.000236e+01
1.000261e+01
1.000285e+01
1.000309e+01
1.000333e+01
1.000356e+01
1.000378e+01
1.000400e+01
1.000421e+01
1.000442e+01
1.000462e+01
1.000481e+01
1.000500e+01
1.000518e+01
1.000535e+01
1.000551e+01
1.000566e+01
1.000580e+01
1.000594e+01
1.000607e+01
1.000618e+01
1.000629e+01
1.000639e+01
1.000647e+01
1.000655e+01
1.000662e+01
1.000668e+01
1.000672e+01
1.000676e+01
1.000679e+01
1.000680e+01
1.000681e+01
1.000680e+01
1.000679e+01
1.000676e+01
1.000672e+01
1.000668e+01
1.000662e+01
1.000655e+01
1.000647e+01
1.000639e+01
1.000629e+01
1.000618e+01
1.000607e+01
1.000594e+01
1.000580e+01
1.000566e+01
1.000551e+01
1.000535e+01
1.000518e+01
1.000500e+01
1.000481e+01
1.000462e+01
1.000442e+01
1.000421e+01
1.000400e+01
1.000378e+01
1.000356e+01
1.000333e+01
1.000309e+01
1.000285e+01
1.000261e+01
1.000236e+01
1.000210e+01
1.000185e+01
1.000159e+01
1.000133e+01
1.000106e+01
1.000080e+01
1.000053e+01
1.000027e+01
1.000000e+01
1.000000e+01
1.000040e+01
1.000080e+01
1.000120e+01
1.000160e+01
1.000199e+01
1.000239e+01
1.000278e+01
1.000316e+01
1.000354e+01
1.000391e+01
1.000428e+01
1.000464e+01
1.000500e+01
1.000534e+01
1.000568e+01
1.000601e+01
1.000633e+01
1.000664e+01
1.000694e+01
1.000723e+01
1.000751e+01
1.000777e+01
1.000803e+01
1.000827e+01
1.000850e+01
1.000872e+01
1.000892e+01
1.000911e+01
1.000929e+01
1.000945e+01
1.000959e+01
1.000972e+01
1.000984e+01
1.000994e+01
1.001003e+01
1.001010e+01
1.001015e+01
1.001019e+01
1.001022e+01
1.001022e+01
1.001022e+01
1.001019e+01
1.001015e+01
1.001010e+01
1.001003e+01
1.000994e+01
1.000984e+01
1.000972e+01
1.000959e+01
1.000945e+01
1.000929e+01
1.000911e+01
1.000892e+01
1.000872e+01
1.000850e+01
1.000827e+01
1.000803e+01
1.000777e+01
1.000751e+01
1.000723e+01
1.000694e+01
1.000664e+01
1.000633e+01
1.000601e+01
1.000568e+01
1.000534e+01
1.000500e+01
1.000464e+01
1.000428e+01
1.000391e+01
1.000354e+01
1.000316e+01
1.000278e+01
1.000239e+01
1.000199e+01
1.000160e+01
1.000120e+01
1.000080e+01
1.000040e+01
1.000000e+01
1.000000e+01
1.000054e+01
1.000107e+01
1.000161e+01
1.000214e+01
1.000266e+01
1.000319e+01
1.000371e+01
1.000422e+01
1.000473e+01
1.000523e+01
1.000572e+01
1.000620e+01
1.000667e+01
1.000714e+01
1.000759e+01
1.000803e+01
1.000846e+01
1.000887e+01
1.000927e+01
1.000966e+01
1.001003e+01
1.001039e+01
1.001073e+01
1.001105e+01
1.001136e+01
1.001164e+01
1.001192e+01
1.001217e+01
1.001240e+01
1.001262e+01
1.001281e+01
1.001299e+01
1.001314e+01
1.001328e+01
1.001340e+01
1.001349e+01
1.001356e+01
1.001362e+01
1.001365e+01
1.001366e+01
1.001365e+01
1.001362e+01
1.001356e+01
1.001349e+01
1.001340e+01
1.001328e+01
1.001314e+01
1.001299e+01
1.001281e+01
1.001262e+01
1.001240e+01
1.001217e+01
1.001192e+01
1.001164e+01
1.001136e+01
1.001105e+01
1.001073e+01
1.001039e+01
1.001003e+01
1.000966e+01
1.000927e+01
1.000887e+01
1.000846e+01
1.000803e+01
1.000759e+01
1.000714e+01
1.000667e+01
1.000620e+01
1.000572e+01
1.000523e+01
1.000473e+01
1.000422e+01
1.000371e+01
1.000319e+01
1.000266e+01
1.000214e+01
1.000161e+01
1.000107e+01
1.000054e+01
1.000000e+01
1.000000e+01
1.000067e+01
1.000134e+01
1.000201e+01
1.000268e+01
1.000334e+01
1.000399e+01
1.000464e+01
1.000529e+01
1.000592e+01
1.000655e+01
1.000716e+01
1.000777e+01
1.000836e+01
1.000894e+01
1.000951e+01
1.001006e+01
1.001059e+01
1.001111e+01
1.001162e+01
1.001210e+01
1.001257e+01
1.001301e+01
1.001344e+01
1.001384e+01
1.001423e+01
1.001459e+01
1.001493e+01
1.001525e+01
1.001554e+01
1.001581e+01
1.001605e+01
1.001627e+01
1.001647e+01
1.001664e+01
1.001678e+01
1.001690e+01
1.001699e+01
1.001706e+01
1.001710e+01
1.001711e+01
1.001710e+01
1.001706e+01
1.001699e+01
1.001690e+01
1.001678e+01
1.001664e+01
1.001647e+01
1.001627e+01
1.001605e+01
1.001581e+01
1.001554e+01
1.001525e+01
1.001493e+01
1.001459e+01
1.001423e+01
1.001384e+01
1.001344e+01
1.001301e+01
1.001257e+01
1.001210e+01
1.001162e+01
1.001111e+01
1.001059e+01
1.001006e+01
1.000951e+01
1.000894e+01
1.000836e+01
1.000777e+01
1.000716e+01
1.000655e+01
1.000592e+01
1.000529e+01
1.000464e+01
1.000399e+01
1.000334e+01
1.000268e+01
1.000201e+01
1.000134e+01
1.000067e+01
1.000000e+01
1.000000e+01
1.000081e+01
1.000162e+01
1.000242e+01
1.000322e+01
1.000402e+01
1.000481e+01
1.000559e+01
1.000636e+01
1.000713e+01
1.000788e+01
1.000862e+01
1.000935e+01
1.001006e+01
1.001076e+01
1.001144e+01
1.001210e+01
1.001275e+01
1.001337e+01
1.001398e+01
1.001456e+01
1.001512e+01
1.001566e+01
1.001617e+01
1.001666e+01
1.001712e+01
1.001756e+01
1.001797e+01
1.001835e+01
1.001870e+01
1.001902e+01
1.001932e+01
1.001958e+01
1.001982e+01
1.002002e+01
1.002020e+01
1.002034e+01
1.002045e+01
1.002053e+01
1.002058e+01
1.002059e+01
1.002058e+01
1.002053e+01
1.002045e+01
1.002034e+01
1.002020e+01
1.002002e+01
1.001982e+01
1.001958e+01
1.001932e+01
1.001902e+01
1.001870e+01
1.001835e+01
1.001797e+01
1.001756e+01
1.001712e+01
1.001666e+01
1.001617e+01
1.001566e+01
1.001512e+01
1.001456e+01
1.001398e+01
1.001337e+01
1.001275e+01
1.001210e+01
1.001144e+01
1.001076e+01
1.001006e+01
1.000935e+01
1.000862e+01
1.000788e+01
1.000713e+01
1.000636e+01
1.000559e+01
1.000481e+01
1.000402e+01
1.000322e+01
1.000242e+01
1.000162e+01
1.000081e+01
1.000000e+01
1.000000e+01
1.000095e+01
1.000189e+01
1.000283e+01
1.000377e+01
1.000470e+01
1.000563e+01
1.000654e+01
1.000745e+01
1.000834e+01
1.000922e+01
1.001009e+01
1.001094e+01
1.001178e+01
1.001259e+01
1.001339e+01
1.001417e+01
1.001492e+01
1.001565e+01
1.001636e+01
1.001704e+01
1.001770e+01
1.001833e+01
1.001893e+01
1.001950e+01
1.002004e+01
1.002055e+01
1.002103e+01
1.002148e+01
1.002189e+01
1.002227e+01
1.002261e+01
1.002292e+01
1.002320e+01
1.002344e+01
1.002364e+01
1.002381e+01
1.002394e+01
1.002403e+01
1.002408e+01
1.002410e+01
1.002408e+01
1.002403e+01
1.002394e+01
1.002381e+01
1.002364e+01
1.002344e+01
1.002320e+01
1.002292e+01
1.002261e+01
1.002227e+01
1.002189e+01
1.002148e+01
1.002103e+01
1.002055e+01
1.002004e+01
1.001950e+01
1.001893e+01
1.001833e+01
1.001770e+01
1.001704e+01
1.001636e+01
1.001565e+01
1.001492e+01
1.001417e+01
1.001339e+01
1.001259e+01
1.001178e+01
1.001094e+01
1.001009e+01
1.000922e+01
1.000834e+01
1.000745e+01
1.000654e+01
1.000563e+01
1.000470e+01
1.000377e+01
1.000283e+01
1.000189e+01
1.000095e+01
1.000000e+01
1.000000e+01
1.000109e+01
1.000217e+01
1.000325e+01
1.000433e+01
1.000539e+01
1.000646e+01
1.000751e+01
1.000855e+01
1.000957e+01
1.001058e+01
1.001158e+01
1.001255e+01
1.001351e+01
1.001445e+01
1.001536e+01
1.001625e+01
1.001712e+01
1.001796e+01
1.001877e+01
1.001955e+01
1.002031e+01
1.002103e+01
1.002172e+01
1.002237e+01
1.002299e+01
1.002358e+01
1.002413e+01
1.002464e+01
1.002511e+01
1.002555e+01
1.002594e+01
1.002630e+01
1.002661e+01
1.002689e+01
1.002712e+01
1.002731e+01
1.002746e+01
1.002757e+01
1.002763e+01
1.002765e+01
1.002763e+01
1.002757e+01
1.002746e+01
1.002731e+01
1.002712e+01
1.002689e+01
1.002661e+01
1.002630e+01
1.002594e+01
1.002555e+01
1.002511e+01
1.002464e+01
1.002413e+01
1.002358e+01
1.002299e+01
1.002237e+01
1.002172e+01
1.002103e+01
1.002031e+01
1.001955e+01
1.001877e+01
1.001796e+01
1.001712e+01
1.001625e+01
1.001536e+01
1.001445e+01
1.001351e+01
1.001255e+01
1.001158e+01
1.001058e+01
1.000957e+01
1.000855e+01
1.000751e+01
1.000646e+01
1.000539e+01
1.000433e+01
1.000325e+01
1.000217e+01
1.000109e+01
1.000000e+01
1.000000e+01
1.000123e+01
1.000245e+01
1.000367e+01
1.000489e+01
1.000610e+01
1.000729e+01
1.000848e+01
1.000966e+01
1.001081e+01
1.001196e+01
1.001308e+01
1.001418e+01
1.001527e+01
1.001633e+01
1.001736e+01
1.001836e+01
1.001934e+01
1.002029e+01
1.002121e+01
1.002209e+01
1.002294e+01
1.002376e+01
1.002454e+01
1.002528e+01
1.002598e+01
1.002664e+01
1.002726e+01
1.002784e+01
1.002837e+01
1.002887e+01
1.002931e+01
1.002972e+01
1.003007e+01
1.003038e+01
1.003064e+01
1.003086e+01
1.003103e+01
1.003115e+01
1.003122e+01
1.003124e+01
1.003122e+01
1.003115e+01
1.003103e+01
1.003086e+01
1.003064e+01
1.003038e+01
1.003007e+01
1.002972e+01
1.002931e+01
1.002887e+01
1.002837e+01
1.002784e+01
1.002726e+01
1.002664e+01
1.002598e+01
1.002528e+01
1.002454e+01
1.002376e+01
1.002294e+01
1.002209e+01
1.002121e+01
1.002029e+01
1.001934e+01
1.001836e+01
1.001736e+01
1.001633e+01
1.001527e+01
1.001418e+01
1.001308e+01
1.001196e+01
1.001081e+01
1.000966e+01
1.000848e+01
1.000729e+01
1.000610e+01
1.000489e+01
1.000367e+01
1.000245e+01
1.000123e+01
1.000000e+01
1.000000e+01
1.000137e+01
1.000274e+01
1.000410e+01
1.000546e+01
1.000681e+01
1.000814e+01
1.000947e+01
1.001078e+01
1.001207e+01
1.001335e+01
1.001460e+01
1.001584e+01
1.001705e+01
1.001823e+01
1.001938e+01
1.002050e+01
1.002160e+01
1.002266e+01
1.002368e+01
1.002467e+01
1.002562e+01
1.002653e+01
1.002740e+01
1.002822e+01
1.002901e+01
1.002974e+01
1.003044e+01
1.003108e+01
1.003168e+01
1.003223e+01
1.003273e+01
1.003318e+01
1.003357e+01
1.003392e+01
1.003421e+01
1.003445e+01
1.003464e+01
1.003478e+01
1.003486e+01
1.003488e+01
1.003486e+01
1.003478e+01
1.003464e+01
1.003445e+01
1.003421e+01
1.003392e+01
1.003357e+01
1.003318e+01
1.003273e+01
1.003223e+01
1.003168e+01
1.003108e+01
1.003044e+01
1.002974e+01
1.002901e+01
1.002822e+01
1.002740e+01
1.002653e+01
1.002562e+01
1.002467e+01
1.002368e+01
1.002266e+01
1.002160e+01
1.002050e+01
1.001938e+01
1.001823e+01
1.001705e+01
1.001584e+01
1.001460e+01
1.001335e+01
1.001207e+01
1.001078e+01
1.000947e+01
1.000814e+01
1.000681e+01
1.000546e+01
1.000410e+01
1.000274e+01
1.000137e+01
1.000000e+01
1.000000e+01
1.000151e+01
1.000303e+01
1.000453e+01
1.000603e+01
1.000753e+01
1.000901e+01
1.001047e+01
1.001192e+01
1.001335e+01
1.001476e+01
1.001615e+01
1.001751e+01
1.001885e+01
1.002016e+01
1.002143e+01
1.002268e+01
1.002388e+01
1.002505e+01
1.002619e+01
1.002728e+01
1.002833e+01
1.002934e+01
1.003030e+01
1.003121e+01
1.003208e+01
1.003289e+01
1.003366e+01
1.003437e+01
1.003503e+01
1.003564e+01
1.003619e+01
1.003669e+01
1.003713e+01
1.003751e+01
1.003784e+01
1.003810e+01
1.003831e+01
1.003846e+01
1.003855e+01
1.003858e+01
1.003855e+01
1.003846e+01
1.003831e+01
1.003810e+01
1.003784e+01
1.003751e+01
1.003713e+01
1.003669e+01
1.003619e+01
1.003564e+01
1.003503e+01
1.003437e+01
1.003366e+01
1.003289e+01
1.003208e+01
1.003121e+01
1.003030e+01
1.002934e+01
1.002833e+01
1.002728e+01
1.002619e+01
1.002505e+01
1.002388e+01
1.002268e+01
1.002143e+01
1.002016e+01
1.001885e+01
1.001751e+01
1.001615e+01
1.001476e+01
1.001335e+01
1.001192e+01
1.001047e+01
1.000901e+01
1.000753e+01
1.000603e+01
1.000453e+01
1.000303e+01
1.000151e+01
1.000000e+01
1.000000e+01
1.000166e+01
1.000332e+01
1.000498e+01
1.000662e+01
1.000826e+01
1.000988e+01
1.001149e+01
1.001308e+01
1.001465e+01
1.001620e+01
1.001772e+01
1.001922e+01
1.002068e+01
1.002212e+01
1.002352e+01
1.002488e+01
1.002621e+01
1.002749e+01
1.002873e+01
1.002993e+01
1.003108e+01
1.003219e+01
1.003324e+01
1.003425e+01
1.003520e+01
1.003609e+01
1.003693e+01
1.003772e+01
1.003844e+01
1.003911e+01
1.003971e+01
1.004026e+01
1.004074e+01
1.004116e+01
1.004152e+01
1.004181e+01
1.004204e+01
1.004220e+01
1.004230e+01
1.004233e+01
1.004230e+01
1.004220e+01
1.004204e+01
1.004181e+01
1.004152e+01
1.004116e+01
1.004074e+01
1.004026e+01
1.003971e+01
1.003911e+01
1.003844e+01
1.003772e+01
1.003693e+01
1.003609e+01
1.003520e+01
1.003425e+01
1.003324e+01
1.003219e+01
1.003108e+01
1.002993e+01
1.002873e+01
1.002749e+01
1.002621e+01
1.002488e+01
1.002352e+01
1.002212e+01
1.002068e+01
1.001922e+01
1.001772e+01
1.001620e+01
1.001465e+01
1.001308e+01
1.001149e+01
1.000988e+01
1.000826e+01
1.000662e+01
1.000498e+01
1.000332e+01
1.000166e+01
1.000000e+01
1.000000e+01
1.000181e+01
1.000362e+01
1.000542e+01
1.000722e+01
1.000900e+01
1.001077e+01
1.001253e+01
1.001426e+01
1.001597e+01
1.001766e+01
1.001932e+01
1.002095e+01
1.002255e+01
1.002411e+01
1.002564e+01
1.002713e+01
1.002857e+01
1.002997e+01
1.003133e+01
1.003263e+01
1.003389e+01
1.003509e+01
1.003624e+01
1.003734e+01
1.003837e+01
1.003935e+01
1.004027e+01
1.004112e+01
1.004191e+01
1.004264e+01
1.004330e+01
1.004389e+01
1.004442e+01
1.004487e+01
1.004526e+01
1.004558e+01
1.004583e+01
1.004601e+01
1.004611e+01
1.004615e+01
1.004611e+01
1.004601e+01
1.004583e+01
1.004558e+01
1.004526e+01
1.004487e+01
1.004442e+01
1.004389e+01
1.004330e+01
1.004264e+01
1.004191e+01
1.004112e+01
1.004027e+01
1.003935e+01
1.003837e+01
1.003734e+01
1.003624e+01
1.003509e+01
1.003389e+01
1.003263e+01
1.003133e+01
1.002997e+01
1.002857e+01
1.002713e+01
1.002564e+01
1.002411e+01
1.002255e+01
1.002095e+01
1.001932e+01
1.001766e+01
1.001597e+01
1.001426e+01
1.001253e+01
1.001077e+01
1.000900e+01
1.000722e+01
1.000542e+01
1.000362e+01
1.000181e+01
1.000000e+01
1.000000e+01
1.000196e+01
1.000393e+01
1.000588e+01
1.000783e+01
1.000976e+01
1.001168e+01
1.001358e+01
1.001546e+01
1.001732e+01
1.001915e+01
1.002095e+01
1.002272e+01
1.002445e+01
1.002615e+01
1.002780e+01
1.002941e+01
1.003098e+01
1.003250e+01
1.003397e+01
1.003538e+01
1.003675e+01
1.003805e+01
1.003930e+01
1.004048e+01
1.004161e+01
1.004267e+01
1.004366e+01
1.004459e+01
1.004544e+01
1.004623e+01
1.004695e+01
1.004759e+01
1.004816e+01
1.004866e+01
1.004908e+01
1.004942e+01
1.004969e+01
1.004989e+01
1.005000e+01
1.005004e+01
1.005000e+01
1.004989e+01
1.004969e+01
1.004942e+01
1.004908e+01
1.004866e+01
1.004816e+01
1.004759e+01
1.004695e+01
1.004623e+01
1.004544e+01
1.004459e+01
1.004366e+01
1.004267e+01
1.004161e+01
1.004048e+01
1.003930e+01
1.003805e+01
1.003675e+01
1.003538e+01
1.003397e+01
1.003250e+01
1.003098e+01
1.002941e+01
1.002780e+01
1.002615e+01
1.002445e+01
1.002272e+01
1.002095e+01
1.001915e+01
1.001732e+01
1.001546e+01
1.001358e+01
1.001168e+01
1.000976e+01
1.000783e+01
1.000588e+01
1.000393e+01
1.000196e+01
1.000000e+01
1.000000e+01
1.000212e+01
1.000424e+01
1.000635e+01
1.000845e+01
1.001054e+01
1.001261e+01
1.001466e+01
1.001669e+01
1.001869e+01
1.002067e+01
1.002261e+01
1.002452e+01
1.002639e+01
1.002822e+01
1.003000e+01
1.003174e+01
1.003344e+01
1.003507e+01
1.003666e+01
1.003819e+01
1.003966e+01
1.004107e+01
1.004241e+01
1.004369e+01
1.004490e+01
1.004605e+01
1.004712e+01
1.004812e+01
1.004905e+01
1.004990e+01
1.005067e+01
1.005136e+01
1.005198e+01
1.005251e+01
1.005297e+01
1.005334e+01
1.005363e+01
1.005384e+01
1.005397e+01
1.005401e+01
1.005397e+01
1.005384e+01
1.005363e+01
1.005334e+01
1.005297e+01
1.005251e+01
1.005198e+01
1.005136e+01
1.005067e+01
1.004990e+01
1.004905e+01
1.004812e+01
1.004712e+01
1.004605e+01
1.004490e+01
1.004369e+01
1.004241e+01
1.004107e+01
1.003966e+01
1.003819e+01
1.003666e+01
1.003507e+01
1.003344e+01
1.003174e+01
1.003000e+01
1.002822e+01
1.002639e+01
1.002452e+01
1.002261e+01
1.002067e+01
1.001869e+01
1.001669e+01
1.001466e+01
1.001261e+01
1.001054e+01
1.000845e+01
1.000635e+01
1.000424e+01
1.000212e+01
1.000000e+01
1.000000e+01
1.000228e+01
1.000456e+01
1.000682e+01
1.000908e+01
1.001133e+01
1.001355e+01
1.001576e+01
1.001794e+01
1.002009e+01
1.002222e+01
1.002431e+01
1.002636e+01
1.002837e+01
1.003033e+01
1.003225e+01
1.003412e+01
1.003594e+01
1.003770e+01
1.003941e+01
1.004105e+01
1.004263e+01
1.004415e+01
1.004559e+01
1.004697e+01
1.004827e+01
1.004950e+01
1.005065e+01
1.005173e+01
1.005272e+01
1.005364e+01
1.005447e+01
1.005522e+01
1.005588e+01
1.005645e+01
1.005694e+01
1.005734e+01
1.005765e+01
1.005788e+01
1.005801e+01
1.005806e+01
1.005801e+01
1.005788e+01
1.005765e+01
1.005734e+01
1.005694e+01
1.005645e+01
1.005588e+01
1.005522e+01
1.005447e+01
1.005364e+01
1.005272e+01
1.005173e+01
1.005065e+01
1.004950e+01
1.004827e+01
1.004697e+01
1.004559e+01
1.004415e+01
1.004263e+01
1.004105e+01
1.003941e+01
1.003770e+01
1.003594e+01
1.003412e+01
1.003225e+01
1.003033e+01
1.002837e+01
1.002636e+01
1.002431e+01
1.002222e+01
1.002009e+01
1.001794e+01
1.001576e+01
1.001355e+01
1.001133e+01
1.000908e+01
1.000682e+01
1.000456e+01
1.000228e+01
1.000000e+01
1.000000e+01
1.000244e+01
1.000488e+01
1.000731e+01
1.000973e+01
1.001213e+01
1.001452e+01
1.001688e+01
1.001922e+01
1.002153e+01
1.002380e+01
1.002604e+01
1.002824e+01
1.003039e+01
1.003250e+01
1.003455e+01
1.003656e+01
1.003851e+01
1.004039e+01
1.004222e+01
1.004398e+01
1.004567e+01
1.004729e+01
1.004884e+01
1.005032e+01
1.005171e+01
1.005303e+01
1.005427e+01
1.005542e+01
1.005648e+01
1.005746e+01
1.005835e+01
1.005915e+01
1.005986e+01
1.006048e+01
1.006100e+01
1.006143e+01
1.006177e+01
1.006200e+01
1.006215e+01
1.006220e+01
1.006215e+01
1.006200e+01
1.006177e+01
1.006143e+01
1.006100e+01
1.006048e+01
1.005986e+01
1.005915e+01
1.005835e+01
1.005746e+01
1.005648e+01
1.005542e+01
1.005427e+01
1.005303e+01
1.005171e+01
1.005032e+01
1.004884e+01
1.004729e+01
1.004567e+01
1.004398e+01
1.004222e+01
1.004039e+01
1.003851e+01
1.003656e+01
1.003455e+01
1.003250e+01
1.003039e+01
1.002824e+01
1.002604e+01
1.002380e+01
1.002153e+01
1.001922e+01
1.001688e+01
1.001452e+01
1.001213e+01
1.000973e+01
1.000731e+01
1.000488e+01
1.000244e+01
1.000000e+01
1.000000e+01
1.000261e+01
1.000521e+01
1.000781e+01
1.001039e+01
1.001296e+01
1.001551e+01
1.001803e+01
1.002053e+01
1.002299e+01
1.002542e+01
1.002781e+01
1.003016e+01
1.003246e+01
1.003471e+01
1.003691e+01
1.003905e+01
1.004113e+01
1.004314e+01
1.004509e+01
1.004697e+01
1.004878e+01
1.005052e+01
1.005217e+01
1.005374e+01
1.005524e+01
1.005664e+01
1.005796e+01
1.005919e+01
1.006033e+01
1.006138e+01
1.006233e+01
1.006318e+01
1.006394e+01
1.006460e+01
1.006516e+01
1.006561e+01
1.006597e+01
1.006623e+01
1.006638e+01
1.006643e+01
1.006638e+01
1.006623e+01
1.006597e+01
1.006561e+01
1.006516e+01
1.006460e+01
1.006394e+01
1.006318e+01
1.006233e+01
1.006138e+01
1.006033e+01
1.005919e+01
1.005796e+01
1.005664e+01
1.005524e+01
1.005374e+01
1.005217e+01
1.005052e+01
1.004878e+01
1.004697e+01
1.004509e+01
1.004314e+01
1.004113e+01
1.003905e+01
1.003691e+01
1.003471e+01
1.003246e+01
1.003016e+01
1.002781e+01
1.002542e+01
1.002299e+01
1.002053e+01
1.001803e+01
1.001551e+01
1.001296e+01
1.001039e+01
1.000781e+01
1.000521e+01
1.000261e+01
1.000000e+01
1.000000e+01
1.000278e+01
1.000555e+01
1.000832e+01
1.001107e+01
1.001381e+01
1.001652e+01
1.001921e+01
1.002187e+01
1.002449e+01
1.002708e+01
1.002963e+01
1.003213e+01
1.003458e+01
1.003698e+01
1.003932e+01
1.004160e+01
1.004381e+01
1.004596e+01
1.004804e+01
1.005004e+01
1.005197e+01
1.005381e+01
1.005558e+01
1.005725e+01
1.005884e+01
1.006034e+01
1.006175e+01
1.006306e+01
1.006427e+01
1.006538e+01
1.006640e+01
1.006731e+01
1.006811e+01
1.006882e+01
1.006941e+01
1.006990e+01
1.007028e+01
1.007055e+01
1.007072e+01
1.007077e+01
1.007072e+01
1.007055e+01
1.007028e+01
1.006990e+01
1.006941e+01
1.006882e+01
1.006811e+01
1.006731e+01
1.006640e+01
1.006538e+01
1.006427e+01
1.006306e+01
1.006175e+01
1.006034e+01
1.005884e+01
1.005725e+01
1.005558e+01
1.005381e+01
1.005197e+01
1.005004e+01
1.004804e+01
1.004596e+01
1.004381e+01
1.004160e+01
1.003932e+01
1.003698e+01
1.003458e+01
1.003213e+01
1.002963e+01
1.002708e+01
1.002449e+01
1.002187e+01
1.001921e+01
1.001652e+01
1.001381e+01
1.001107e+01
1.000832e+01
1.000555e+01
1.000278e+01
1.000000e+01
1.000000e+01
1.000295e+01
1.000590e+01
1.000884e+01
1.001177e+01
1.001467e+01
1.001756e+01
1.002042e+01
1.002324e+01
1.002603e+01
1.002878e+01
1.003149e+01
1.003415e+01
1.003675e+01
1.003930e+01
1.004179e+01
1.004421e+01
1.004657e+01
1.004885e+01
1.005106e+01
1.005319e+01
1.005523e+01
1.005720e+01
1.005907e+01
1.006085e+01
1.006254e+01
1.006413e+01
1.006563e+01
1.006702e+01
1.006831e+01
1.006949e+01
1.007057e+01
1.007154e+01
1.007239e+01
1.007314e+01
1.007377e+01
1.007429e+01
1.007470e+01
1.007499e+01
1.007516e+01
1.007522e+01
1.007516e+01
1.007499e+01
1.007470e+01
1.007429e+01
1.007377e+01
1.007314e+01
1.007239e+01
1.007154e+01
1.007057e+01
1.006949e+01
1.006831e+01
1.006702e+01
1.006563e+01
1.006413e+01
1.006254e+01
1.006085e+01
1.005907e+01
1.005720e+01
1.005523e+01
1.005319e+01
1.005106e+01
1.004885e+01
1.004657e+01
1.004421e+01
1.004179e+01
1.003930e+01
1.003675e+01
1.003415e+01
1.003149e+01
1.002878e+01
1.002603e+01
1.002324e+01
1.002042e+01
1.001756e+01
1.001467e+01
1.001177e+01
1.000884e+01
1.000590e+01
1.000295e+01
1.000000e+01
1.000000e+01
1.000313e+01
1.000626e+01
1.000938e+01
1.001248e+01
1.001556e+01
1.001862e+01
1.002166e+01
1.002465e+01
1.002761e+01
1.003053e+01
1.003340e+01
1.003622e+01
1.003898e+01
1.004169e+01
1.004432e+01
1.004689e+01
1.004939e+01
1.005181e+01
1.005416e+01
1.005641e+01
1.005859e+01
1.006067e+01
1.006265e+01
1.006454e+01
1.006634e+01
1.006802e+01
1.006961e+01
1.007109e+01
1.007245e+01
1.007371e+01
1.007485e+01
1.007588e+01
1.007679e+01
1.007758e+01
1.007825e+01
1.007880e+01
1.007923e+01
1.007954e+01
1.007972e+01
1.007978e+01
1.007972e+01
1.007954e+01
1.007923e+01
1.007880e+01
1.007825e+01
1.007758e+01
1.007679e+01
1.007588e+01
1.007485e+01
1.007371e+01
1.007245e+01
1.007109e+01
1.006961e+01
1.006802e+01
1.006634e+01
1.006454e+01
1.006265e+01
1.006067e+01
1.005859e+01
1.005641e+01
1.005416e+01
1.005181e+01
1.004939e+01
1.004689e+01
1.004432e+01
1.004169e+01
1.003898e+01
1.003622e+01
1.003340e+01
1.003053e+01
1.002761e+01
1.002465e+01
1.002166e+01
1.001862e+01
1.001556e+01
1.001248e+01
1.000938e+01
1.000626e+01
1.000313e+01
1.000000e+01
1.000000e+01
1.000332e+01
1.000663e+01
1.000993e+01
1.001321e+01
1.001648e+01
1.001972e+01
1.002293e+01
1.002610e+01
1.002924e+01
1.003232e+01
1.003536e+01
1.003835e+01
1.004127e+01
1.004413e+01
1.004693e+01
1.004965e+01
1.005229e+01
1.005486e+01
1.005734e+01
1.005973e+01
1.006203e+01
1.006423e+01
1.006633e+01
1.006834e+01
1.007023e+01
1.007202e+01
1.007370e+01
1.007526e+01
1.007671e+01
1.007804e+01
1.007925e+01
1.008033e+01
1.008130e+01
1.008213e+01
1.008284e+01
1.008343e+01
1.008388e+01
1.008421e+01
1.008440e+01
1.008447e+01
1.008440e+01
1.008421e+01
1.008388e+01
1.008343e+01
1.008284e+01
1.008213e+01
1.008130e+01
1.008033e+01
1.007925e+01
1.007804e+01
1.007671e+01
1.007526e+01
1.007370e+01
1.007202e+01
1.007023e+01
1.006834e+01
1.006633e+01
1.006423e+01
1.006203e+01
1.005973e+01
1.005734e+01
1.005486e+01
1.005229e+01
1.004965e+01
1.004693e+01
1.004413e+01
1.004127e+01
1.003835e+01
1.003536e+01
1.003232e+01
1.002924e+01
1.002610e+01
1.002293e+01
1.001972e+01
1.001648e+01
1.001321e+01
1.000993e+01
1.000663e+01
1.000332e+01
1.000000e+01
1.000000e+01
1.000351e+01
1.000701e+01
1.001049e+01
1.001397e+01
1.001742e+01
1.002084e+01
1.002424e+01
1.002759e+01
1.003090e+01
1.003417e+01
1.003738e+01
1.004053e+01
1.004363e+01
1.004665e+01
1.004960e+01
1.005248e+01
1.005528e+01
1.005799e+01
1.006061e+01
1.006313e+01
1.006556e+01
1.006789e+01
1.007012e+01
1.007223e+01
1.007424e+01
1.007613e+01
1.007790e+01
1.007955e+01
1.008108e+01
1.008249e+01
1.008377e+01
1.008491e+01
1.008593e+01
1.008682e+01
1.008757e+01
1.008818e+01
1.008867e+01
1.008901e+01
1.008922e+01
1.008928e+01
1.008922e+01
1.008901e+01
1.008867e+01
1.008818e+01
1.008757e+01
1.008682e+01
1.008593e+01
1.008491e+01
1.008377e+01
1.008249e+01
1.008108e+01
1.007955e+01
1.007790e+01
1.007613e+01
1.007424e+01
1.007223e+01
1.007012e+01
1.006789e+01
1.006556e+01
1.006313e+01
1.006061e+01
1.005799e+01
1.005528e+01
1.005248e+01
1.004960e+01
1.004665e+01
1.004363e+01
1.004053e+01
1.003738e+01
1.003417e+01
1.003090e+01
1.002759e+01
1.002424e+01
1.002084e+01
1.001742e+01
1.001397e+01
1.001049e+01
1.000701e+01
1.000351e+01
1.000000e+01
1.000000e+01
1.000370e+01
1.000739e+01
1.001108e+01
1.001474e+01
1.001839e+01
1.002200e+01
1.002558e+01
1.002912e+01
1.003262e+01
1.003606e+01
1.003945e+01
1.004278e+01
1.004605e+01
1.004924e+01
1.005236e+01
1.005539e+01
1.005834e+01
1.006120e+01
1.006397e+01
1.006664e+01
1.006920e+01
1.007166e+01
1.007401e+01
1.007624e+01
1.007836e+01
1.008035e+01
1.008222e+01
1.008397e+01
1.008558e+01
1.008707e+01
1.008841e+01
1.008963e+01
1.009070e+01
1.009163e+01
1.009243e+01
1.009308e+01
1.009359e+01
1.009395e+01
1.009417e+01
1.009424e+01
1.009417e+01
1.009395e+01
1.009359e+01
1.009308e+01
1.009243e+01
1.009163e+01
1.009070e+01
1.008963e+01
1.008841e+01
1.008707e+01
1.008558e+01
1.008397e+01
1.008222e+01
1.008035e+01
1.007836e+01
1.007624e+01
1.007401e+01
1.007166e+01
1.006920e+01
1.006664e+01
1.006397e+01
1.006120e+01
1.005834e+01
1.005539e+01
1.005236e+01
1.004924e+01
1.004605e+01
1.004278e+01
1.003945e+01
1.003606e+01
1.003262e+01
1.002912e+01
1.002558e+01
1.002200e+01
1.001839e+01
1.001474e+01
1.001108e+01
1.000739e+01
1.000370e+01
1.000000e+01
1.000000e+01
1.000390e+01
1.000779e+01
1.001168e+01
1.001554e+01
1.001938e+01
1.002319e+01
1.002696e+01
1.003070e+01
1.003438e+01
1.003802e+01
1.004159e+01
1.004510e+01
1.004854e+01
1.005190e+01
1.005519e+01
1.005839e+01
1.006150e+01
1.006451e+01
1.006743e+01
1.007024e+01
1.007295e+01
1.007554e+01
1.007801e+01
1.008037e+01
1.008260e+01
1.008470e+01
1.008667e+01
1.008851e+01
1.009021e+01
1.009178e+01
1.009320e+01
1.009448e+01
1.009561e+01
1.009659e+01
1.009743e+01
1.009812e+01
1.009865e+01
1.009903e+01
1.009926e+01
1.009934e+01
1.009926e+01
1.009903e+01
1.009865e+01
1.009812e+01
1.009743e+01
1.009659e+01
1.009561e+01
1.009448e+01
1.009320e+01
1.009178e+01
1.009021e+01
1.008851e+01
1.008667e+01
1.008470e+01
1.008260e+01
1.008037e+01
1.007801e+01
1.007554e+01
1.007295e+01
1.007024e+01
1.006743e+01
1.006451e+01
1.006150e+01
1.005839e+01
1.005519e+01
1.005190e+01
1.004854e+01
1.004510e+01
1.004159e+01
1.003802e+01
1.003438e+01
1.003070e+01
1.002696e+01
1.002319e+01
1.001938e+01
1.001554e+01
1.001168e+01
1.000779e+01
1.000390e+01
1.000000e+01
1.000000e+01
1.000411e+01
1.000821e+01
1.001229e+01
1.001636e+01
1.002040e+01
1.002442e+01
1.002839e+01
1.003232e+01
1.003620e+01
1.004003e+01
1.004379e+01
1.004748e+01
1.005111e+01
1.005465e+01
1.005811e+01
1.006148e+01
1.006475e+01
1.006793e+01
1.007100e+01
1.007396e+01
1.007680e+01
1.007953e+01
1.008214e+01
1.008462e+01
1.008696e+01
1.008918e+01
1.009126e+01
1.009319e+01
1.009498e+01
1.009663e+01
1.009813e+01
1.009947e+01
1.010066e+01
1.010170e+01
1.010258e+01
1.010330e+01
1.010387e+01
1.010427e+01
1.010451e+01
1.010459e+01
1.010451e+01
1.010427e+01
1.010387e+01
1.010330e+01
1.010258e+01
1.010170e+01
1.010066e+01
1.009947e+01
1.009813e+01
1.009663e+01
1.009498e+01
1.009319e+01
1.009126e+01
1.008918e+01
1.008696e+01
1.008462e+01
1.008214e+01
1.007953e+01
1.007680e+01
1.007396e+01
1.007100e+01
1.006793e+01
1.006475e+01
1.006148e+01
1.005811e+01
1.005465e+01
1.005111e+01
1.004748e+01
1.004379e+01
1.004003e+01
1.003620e+01
1.003232e+01
1.002839e+01
1.002442e+01
1.002040e+01
1.001636e+01
1.001229e+01
1.000821e+01
1.000411e+01
1.000000e+01
1.000000e+01
1.000432e+01
1.000863e+01
1.001293e+01
1.001721e+01
1.002146e+01
1.002568e+01
1.002986e+01
1.003399e+01
1.003807e+01
1.004210e+01
1.004605e+01
1.004994e+01
1.005375e+01
1.005748e+01
1.006112e+01
1.006466e+01
1.006810e+01
1.007144e+01
1.007467e+01
1.007779e+01
1.008078e+01
1.008365e+01
1.008639e+01
1.008900e+01
1.009147e+01
1.009379e+01
1.009598e+01
1.009802e+01
1.009990e+01
1.010163e+01
1.010321e+01
1.010462e+01
1.010588e+01
1.010697e+01
1.010789e+01
1.010865e+01
1.010924e+01
1.010967e+01
1.010992e+01
1.011001e+01
1.010992e+01
1.010967e+01
1.010924e+01
1.010865e+01
1.010789e+01
1.010697e+01
1.010588e+01
1.010462e+01
1.010321e+01
1.010163e+01
1.009990e+01
1.009802e+01
1.009598e+01
1.009379e+01
1.009147e+01
1.008900e+01
1.008639e+01
1.008365e+01
1.008078e+01
1.007779e+01
1.007467e+01
1.007144e+01
1.006810e+01
1.006466e+01
1.006112e+01
1.005748e+01
1.005375e+01
1.004994e+01
1.004605e+01
1.004210e+01
1.003807e+01
1.003399e+01
1.002986e+01
1.002568e+01
1.002146e+01
1.001721e+01
1.001293e+01
1.000863e+01
1.000432e+01
1.000000e+01
1.000000e+01
1.000454e+01
1.000907e+01
1.001359e+01
1.001808e+01
1.002255e+01
1.002698e+01
1.003138e+01
1.003572e+01
1.004001e+01
1.004423e+01
1.004839e+01
1.005248e+01
1.005648e+01
1.006040e+01
1.006422e+01
1.006794e+01
1.007156e+01
1.007507e+01
1.007846e+01
1.008173e+01