# vtk DataFile Version 3.0
9 points difference shceme(6-order bound)_
ASCII
DATASET STRUCTURED_POINTS
DIMENSIONS 41 41 1
ORIGIN 0.0 0.0 0.0
SPACING 0.025 0.025 1.0
POINT_DATA 1681
SCALARS Temperature double 1
LOOKUP_TABLE default
8.000000e+00
8.000000e+00
8.000000e+00
8.000000e+00
8.000000e+00
8.000000e+00
8.000000e+00
8.000000e+00
8.000000e+00
8.000000e+00
8.000000e+00
8.000000e+00
8.000000e+00
8.000000e+00
8.000000e+00
8.000000e+00
8.000000e+00
8.000000e+00
8.000000e+00
8.000000e+00
8.000000e+00
8.000000e+00
8.000000e+00
8.000000e+00
8.000000e+00
8.000000e+00
8.000000e+00
8.000000e+00
8.000000e+00
8.000000e+00
8.000000e+00
8.000000e+00
8.000000e+00
8.000000e+00
8.000000e+00
8.000000e+00
8.000000e+00
8.000000e+00
8.000000e+00
8.000000e+00
8.000000e+00
8.000000e+00
4.400000e+00
3.104000e+00
2.896640e+00
2.863462e+00
2.858154e+00
2.857305e+00
2.857169e+00
2.857147e+00
2.857144e+00
2.857143e+00
2.857143e+00
2.857143e+00
2.857143e+00
2.857143e+00
2.857143e+00
2.857143e+00
2.857143e+00
2.857143e+00
2.857143e+00
2.857143e+00
2.857143e+00
2.857143e+00
2.857143e+00
2.857143e+00
2.857143e+00
2.857143e+00
2.857143e+00
2.857143e+00
2.857143e+00
2.857143e+00
2.857143e+00
2.857143e+00
2.857143e+00
2.857143e+00
2.857143e+00
2.857143e+00
2.857143e+00
2.857143e+00
4.857143e+00
8.000000e+00
8.000000e+00
3.228160e+00
1.305011e+00
9.109627e-01
8.340998e-01
8.195913e-01
8.169163e-01
8.164317e-01
8.163451e-01
8.163298e-01
8.163271e-01
8.163266e-01
8.163265e-01
8.163265e-01
8.163265e-01
8.163265e-01
8.163265e-01
8.163265e-01
8.163265e-01
8.163265e-01
8.163265e-01
8.163265e-01
8.163265e-01
8.163265e-01
8.163265e-01
8.163265e-01
8.163265e-01
8.163265e-01
8.163265e-01
8.163265e-01
8.163265e-01
8.163265e-01
8.163265e-01
8.163265e-01
8.163265e-01
8.163265e-01
8.163265e-01
8.163265e-01
8.963265e-01
3.434841e+00
8.000000e+00
8.000000e+00
2.968706e+00
8.493597e-01
3.672160e-01
2.614327e-01
2.390045e-01
2.343882e-01
2.334616e-01
2.332795e-01
2.332444e-01
2.332377e-01
2.332364e-01
2.332362e-01
2.332362e-01
2.332362e-01
2.332362e-01
2.332362e-01
2.332362e-01
2.332362e-01
2.332362e-01
2.332362e-01
2.332362e-01
2.332362e-01
2.332362e-01
2.332362e-01
2.332362e-01
2.332362e-01
2.332362e-01
2.332362e-01
2.332362e-01
2.332362e-01
2.332362e-01
2.332362e-01
2.332362e-01
2.332362e-01
2.332362e-01
2.332362e-01
2.364362e-01
3.512887e-01
3.041634e+00
8.000000e+00
8.000000e+00
2.908967e+00
7.347692e-01
2.207493e-01
1.013979e-01
7.429722e-02
6.828832e-02
6.698670e-02
6.671084e-02
6.665352e-02
6.664183e-02
6.663948e-02
6.663901e-02
6.663892e-02
6.663890e-02
6.663890e-02
6.663890e-02
6.663890e-02
6.663890e-02
6.663890e-02
6.663890e-02
6.663890e-02
6.663890e-02
6.663890e-02
6.663890e-02
6.663890e-02
6.663890e-02
6.663890e-02
6.663890e-02
6.663890e-02
6.663890e-02
6.663890e-02
6.663890e-02
6.663890e-02
6.663890e-02
6.663890e-02
6.676690e-02
7.189348e-02
1.988320e-01
2.932526e+00
8.000000e+00
8.000000e+00
2.894826e+00
7.059238e-01
1.817144e-01
5.709984e-02
2.781098e-02
2.102724e-02
1.948220e-02
1.913649e-02
1.906051e-02
1.904409e-02
1.904061e-02
1.903987e-02
1.903972e-02
1.903969e-02
1.903969e-02
1.903969e-02
1.903969e-02
1.903969e-02
1.903969e-02
1.903969e-02
1.903969e-02
1.903969e-02
1.903969e-02
1.903969e-02
1.903969e-02
1.903969e-02
1.903969e-02
1.903969e-02
1.903969e-02
1.903969e-02
1.903969e-02
1.903969e-02
1.903969e-02
1.903969e-02
1.904481e-02
1.927117e-02
2.521030e-02
1.560235e-01
2.902121e+00
8.000000e+00
8.000000e+00
2.891409e+00
6.986349e-01
1.713768e-01
4.493728e-02
1.476480e-02
7.618455e-03
5.942654e-03
5.554372e-03
5.465605e-03
5.445596e-03
5.441151e-03
5.440177e-03
5.439967e-03
5.439922e-03
5.439913e-03
5.439911e-03
5.439910e-03
5.439910e-03
5.439910e-03
5.439910e-03
5.439910e-03
5.439910e-03
5.439910e-03
5.439910e-03
5.439910e-03
5.439910e-03
5.439910e-03
5.439910e-03
5.439910e-03
5.439910e-03
5.439910e-03
5.439910e-03
5.439910e-03
5.440115e-03
5.450022e-03
5.725595e-03
1.196153e-02
1.439709e-01
2.893616e+00
8.000000e+00
8.000000e+00
2.890571e+00
6.967843e-01
1.686487e-01
4.161942e-02
1.112371e-02
3.827044e-03
2.090065e-03
1.679440e-03
1.583206e-03
1.560879e-03
1.555756e-03
1.554594e-03
1.554334e-03
1.554276e-03
1.554264e-03
1.554261e-03
1.554260e-03
1.554260e-03
1.554260e-03
1.554260e-03
1.554260e-03
1.554260e-03
1.554260e-03
1.554260e-03
1.554260e-03
1.554260e-03
1.554260e-03
1.554260e-03
1.554260e-03
1.554260e-03
1.554260e-03
1.554260e-03
1.554268e-03
1.554699e-03
1.567384e-03
1.863339e-03
8.199838e-03
1.405704e-01
2.891229e+00
8.000000e+00
8.000000e+00
2.890363e+00
6.963123e-01
1.679299e-01
4.071879e-02
1.011266e-02
2.758903e-03
9.960942e-04
5.750163e-04
4.749283e-04
4.512876e-04
4.457458e-04
4.444579e-04
4.441615e-04
4.440939e-04
4.440787e-04
4.440753e-04
4.440745e-04
4.440744e-04
4.440743e-04
4.440743e-04
4.440743e-04
4.440743e-04
4.440743e-04
4.440743e-04
4.440743e-04
4.440743e-04
4.440743e-04
4.440743e-04
4.440743e-04
4.440743e-04
4.440743e-04
4.440746e-04
4.440932e-04
4.446728e-04
4.586505e-04
7.622071e-04
7.131277e-03
1.396094e-01
2.890557e+00
8.000000e+00
8.000000e+00
2.890311e+00
6.961914e-01
1.677406e-01
4.047521e-02
9.833167e-03
2.459081e-03
6.861848e-04
2.606331e-04
1.587420e-04
1.344317e-04
1.286582e-04
1.272949e-04
1.269751e-04
1.269006e-04
1.268835e-04
1.268795e-04
1.268786e-04
1.268784e-04
1.268784e-04
1.268784e-04
1.268784e-04
1.268784e-04
1.268784e-04
1.268784e-04
1.268784e-04
1.268784e-04
1.268784e-04
1.268784e-04
1.268784e-04
1.268784e-04
1.268784e-04
1.268792e-04
1.269055e-04
1.275623e-04
1.420692e-04
4.482813e-04
6.827594e-03
1.393374e-01
2.890367e+00
8.000000e+00
8.000000e+00
2.890297e+00
6.961602e-01
1.676908e-01
4.040952e-02
9.756201e-03
2.375219e-03
5.986132e-04
1.712765e-04
6.860555e-05
4.398197e-05
3.809149e-05
3.668715e-05
3.635378e-05
3.627505e-05
3.625657e-05
3.625226e-05
3.625126e-05
3.625103e-05
3.625098e-05
3.625097e-05
3.625096e-05
3.625096e-05
3.625096e-05
3.625096e-05
3.625096e-05
3.625096e-05
3.625096e-05
3.625096e-05
3.625096e-05
3.625096e-05
3.625100e-05
3.625218e-05
3.628288e-05
3.697421e-05
5.168070e-05
3.587804e-04
6.741249e-03
1.392604e-01
2.890314e+00
8.000000e+00
8.000000e+00
2.890294e+00
6.961522e-01
1.676777e-01
4.039183e-02
9.735074e-03
2.351840e-03
5.739323e-04
1.459221e-04
4.293477e-05
1.817456e-05
1.222933e-05
1.080445e-05
1.046380e-05
1.038263e-05
1.036336e-05
1.035881e-05
1.035774e-05
1.035749e-05
1.035744e-05
1.035742e-05
1.035742e-05
1.035742e-05
1.035742e-05
1.035742e-05
1.035742e-05
1.035742e-05
1.035742e-05
1.035742e-05
1.035742e-05
1.035742e-05
1.035747e-05
1.035890e-05
1.039174e-05
1.109710e-05
2.587463e-05
3.332620e-04
6.716689e-03
1.392385e-01
2.890299e+00
8.000000e+00
8.000000e+00
2.890293e+00
6.961501e-01
1.676742e-01
4.038708e-02
9.729291e-03
2.345341e-03
5.669942e-04
1.387413e-04
3.563204e-05
1.081562e-05
4.846353e-06
3.411854e-06
3.067589e-06
2.985122e-06
2.965415e-06
2.960721e-06
2.959606e-06
2.959343e-06
2.959281e-06
2.959267e-06
2.959263e-06
2.959263e-06
2.959262e-06
2.959262e-06
2.959262e-06
2.959262e-06
2.959262e-06
2.959262e-06
2.959262e-06
2.959265e-06
2.959331e-06
2.960886e-06
2.994660e-06
3.705336e-06
1.850716e-05
3.259856e-04
6.709700e-03
1.392323e-01
2.890295e+00
8.000000e+00
8.000000e+00
2.890293e+00
6.961496e-01
1.676733e-01
4.038580e-02
9.727711e-03
2.343540e-03
5.650487e-04
1.367115e-04
3.355724e-05
8.718793e-06
2.739522e-06
1.300778e-06
9.548176e-07
8.717105e-07
8.517739e-07
8.470000e-07
8.458596e-07
8.455879e-07
8.455235e-07
8.455082e-07
8.455046e-07
8.455038e-07
8.455036e-07
8.455035e-07
8.455035e-07
8.455035e-07
8.455035e-07
8.455035e-07
8.455036e-07
8.455067e-07
8.455800e-07
8.471941e-07
8.813455e-07
1.593942e-06
1.640381e-05
3.239106e-04
6.707711e-03
1.392306e-01
2.890293e+00
8.000000e+00
8.000000e+00
2.890293e+00
6.961494e-01
1.676731e-01
4.038546e-02
9.727280e-03
2.343042e-03
5.645045e-04
1.361388e-04
3.296857e-05
8.121849e-06
2.138602e-06
6.980744e-07
3.513623e-07
2.679553e-07
2.479051e-07
2.430902e-07
2.419355e-07
2.416591e-07
2.415931e-07
2.415773e-07
2.415736e-07
2.415727e-07
2.415725e-07
2.415725e-07
2.415724e-07
2.415724e-07
2.415724e-07
2.415724e-07
2.415726e-07
2.415760e-07
2.416530e-07
2.432926e-07
2.775875e-07
9.908511e-07
1.580333e-05
3.233188e-04
6.707144e-03
1.392301e-01
2.890293e+00
8.000000e+00
8.000000e+00
2.890293e+00
6.961494e-01
1.676730e-01
4.038536e-02
9.727163e-03
2.342904e-03
5.643526e-04
1.359775e-04
3.280180e-05
7.952072e-06
1.967305e-06
5.260592e-07
1.790286e-07
9.548812e-08
7.538473e-08
7.054960e-08
6.938758e-08
6.910861e-08
6.904172e-08
6.902571e-08
6.902189e-08
6.902098e-08
6.902076e-08
6.902071e-08
6.902070e-08
6.902070e-08
6.902070e-08
6.902070e-08
6.902086e-08
6.902453e-08
6.910315e-08
7.075293e-08
1.051002e-07
8.185888e-07
1.563189e-05
3.231500e-04
6.706983e-03
1.392299e-01
2.890293e+00
8.000000e+00
8.000000e+00
2.890293e+00
6.961494e-01
1.676730e-01
4.038534e-02
9.727131e-03
2.342866e-03
5.643103e-04
1.359322e-04
3.275463e-05
7.903837e-06
1.918508e-06
4.769841e-07
1.298239e-07
4.622646e-08
2.609930e-08
2.125472e-08
2.008910e-08
1.980880e-08
1.974146e-08
1.972529e-08
1.972142e-08
1.972049e-08
1.972027e-08
1.972022e-08
1.972020e-08
1.972020e-08
1.972020e-08
1.972021e-08
1.972038e-08
1.972415e-08
1.980347e-08
2.145716e-08
5.582285e-08
7.693856e-07
1.558295e-05
3.231019e-04
6.706937e-03
1.392299e-01
2.890293e+00
8.000000e+00
8.000000e+00
2.890293e+00
6.961494e-01
1.676730e-01
4.038533e-02
9.727123e-03
2.342856e-03
5.642985e-04
1.359195e-04
3.274131e-05
7.890148e-06
1.904618e-06
4.629896e-07
1.157786e-07
3.215774e-08
1.202037e-08
7.171550e-09
6.004244e-09
5.723310e-09
5.655727e-09
5.639478e-09
5.635574e-09
5.634638e-09
5.634413e-09
5.634359e-09
5.634347e-09
5.634344e-09
5.634343e-09
5.634351e-09
5.634531e-09
5.638342e-09
5.717941e-09
7.373069e-09
4.174506e-08
7.553318e-07
1.556897e-05
3.230881e-04
6.706924e-03
1.392299e-01
2.890293e+00
8.000000e+00
8.000000e+00
2.890293e+00
6.961494e-01
1.676730e-01
4.038533e-02
9.727120e-03
2.342853e-03
5.642953e-04
1.359160e-04
3.273755e-05
7.886269e-06
1.900667e-06
4.590010e-07
1.117706e-07
2.814050e-08
7.998910e-09
3.148258e-09
1.980195e-09
1.698960e-09
1.631261e-09
1.614970e-09
1.611052e-09
1.610110e-09
1.609884e-09
1.609829e-09
1.609816e-09
1.609813e-09
1.609813e-09
1.609821e-09
1.610004e-09
1.613834e-09
1.693541e-09
3.349177e-09
3.772327e-08
7.513176e-07
1.556499e-05
3.230842e-04
6.706920e-03
1.392299e-01
2.890293e+00
8.000000e+00
8.000000e+00
2.890293e+00
6.961494e-01
1.676730e-01
4.038533e-02
9.727120e-03
2.342852e-03
5.642944e-04
1.359150e-04
3.273649e-05
7.885170e-06
1.899545e-06
4.578648e-07
1.106273e-07
2.699363e-08
6.850357e-09
1.998943e-09
8.305507e-10
5.491799e-10
4.814278e-10
4.651162e-10
4.611901e-10
4.602454e-10
4.600182e-10
4.599636e-10
4.599505e-10
4.599473e-10
4.599470e-10
4.599556e-10
4.601398e-10
4.639776e-10
5.437234e-10
2.199537e-09
3.657432e-08
7.501710e-07
1.556385e-05
3.230831e-04
6.706919e-03
1.392299e-01
2.890293e+00
8.000000e+00
8.000000e+00
2.890293e+00
6.961494e-01
1.676730e-01
4.038533e-02
9.727119e-03
2.342852e-03
5.642941e-04
1.359147e-04
3.273619e-05
7.884860e-06
1.899226e-06
4.575414e-07
1.103013e-07
2.666630e-08
6.522369e-09
1.670646e-09
5.021164e-10
2.206865e-10
1.529101e-10
1.365889e-10
1.326591e-10
1.317131e-10
1.314854e-10
1.314306e-10
1.314174e-10
1.314143e-10
1.314139e-10
1.314226e-10
1.316073e-10
1.354481e-10
2.152080e-10
1.871081e-09
3.624609e-08
7.498436e-07
1.556352e-05
3.230828e-04
6.706919e-03
1.392299e-01
2.890293e+00
8.000000e+00
8.000000e+00
2.890293e+00
6.961494e-01
1.676730e-01
4.038533e-02
9.727119e-03
2.342852e-03
5.642940e-04
1.359146e-04
3.273611e-05
7.884772e-06
1.899136e-06
4.574494e-07
1.102084e-07
2.657291e-08
6.428722e-09
1.576878e-09
4.082925e-10
1.268377e-10
5.905067e-11
4.272511e-11
3.879355e-11
3.784684e-11
3.761890e-11
3.756403e-11
3.755082e-11
3.754767e-11
3.754733e-11
3.755604e-11
3.774096e-11
4.158287e-11
1.213477e-10
1.777240e-09
3.615232e-08
7.497500e-07
1.556343e-05
3.230827e-04
6.706919e-03
1.392299e-01
2.890293e+00
8.000000e+00
8.000000e+00
2.890293e+00
6.961494e-01
1.676730e-01
4.038533e-02
9.727119e-03
2.342852e-03
5.642940e-04
1.359146e-04
3.273609e-05
7.884747e-06
1.899110e-06
4.574233e-07
1.101820e-07
2.654627e-08
6.401990e-09
1.550099e-09
3.814913e-10
1.000264e-10
3.223484e-11
1.590736e-11
1.197502e-11
1.102800e-11
1.079994e-11
1.074502e-11
1.073180e-11
1.072864e-11
1.072830e-11
1.073703e-11
1.092203e-11
1.476433e-11
9.453086e-11
1.750430e-09
3.612553e-08
7.497233e-07
1.556340e-05
3.230827e-04
6.706919e-03
1.392299e-01
2.890293e+00
8.000000e+00
8.000000e+00
2.890293e+00
6.961494e-01
1.676730e-01
4.038533e-02
9.727119e-03
2.342852e-03
5.642940e-04
1.359146e-04
3.273608e-05
7.884740e-06
1.899103e-06
4.574159e-07
1.101744e-07
2.653867e-08
6.394360e-09
1.542453e-09
3.738361e-10
9.236704e-11
2.457365e-11
8.245356e-12
4.312675e-12
3.365506e-12
3.137392e-12
3.082456e-12
3.069228e-12
3.066063e-12
3.065725e-12
3.074454e-12
3.259492e-12
7.101927e-12
8.686902e-11
1.742770e-09
3.611788e-08
7.497157e-07
1.556339e-05
3.230826e-04
6.706919e-03
1.392299e-01
2.890293e+00
8.000000e+00
8.000000e+00
2.890293e+00
6.961494e-01
1.676730e-01
4.038533e-02
9.727119e-03
2.342852e-03
5.642940e-04
1.359146e-04
3.273608e-05
7.884738e-06
1.899101e-06
4.574138e-07
1.101723e-07
2.653651e-08
6.392184e-09
1.540270e-09
3.716497e-10
9.017907e-11
2.238493e-11
6.056299e-12
2.123470e-12
1.176239e-12
9.480993e-13
8.931536e-13
8.799218e-13
8.767557e-13
8.764176e-13
8.851481e-13
1.070198e-12
4.912680e-12
8.467996e-11
1.740582e-09
3.611569e-08
7.497135e-07
1.556339e-05
3.230826e-04
6.706919e-03
1.392299e-01
2.890293e+00
8.000000e+00
8.000000e+00
2.890293e+00
6.961494e-01
1.676730e-01
4.038533e-02
9.727119e-03
2.342852e-03
5.642940e-04
1.359146e-04
3.273608e-05
7.884738e-06
1.899100e-06
4.574132e-07
1.101717e-07
2.653589e-08
6.391563e-09
1.539647e-09
3.710253e-10
8.955409e-11
2.175966e-11
5.430889e-12
1.497999e-12
5.507409e-13
3.225901e-13
2.676398e-13
2.544062e-13
2.512395e-13
2.509013e-13
2.596325e-13
4.446860e-13
4.287185e-12
8.405453e-11
1.739957e-09
3.611507e-08
7.497129e-07
1.556339e-05
3.230826e-04
6.706919e-03
1.392299e-01
2.890293e+00
8.000000e+00
8.000000e+00
2.890293e+00
6.961494e-01
1.676730e-01
4.038533e-02
9.727119e-03
2.342852e-03
5.642940e-04
1.359146e-04
3.273608e-05
7.884738e-06
1.899100e-06
4.574130e-07
1.101715e-07
2.653571e-08
6.391386e-09
1.539469e-09
3.708471e-10
8.937559e-11
2.158104e-11
5.252215e-12
1.319299e-12
3.720300e-13
1.438745e-13
8.892214e-14
7.568771e-14
7.252066e-14
7.218239e-14
8.091388e-14
2.659687e-13
4.108473e-12
8.387583e-11
1.739778e-09
3.611489e-08
7.497127e-07
1.556339e-05
3.230826e-04
6.706919e-03
1.392299e-01
2.890293e+00
8.000000e+00
8.000000e+00
2.890293e+00
6.961494e-01
1.676730e-01
4.038533e-02
9.727119e-03
2.342852e-03
5.642940e-04
1.359146e-04
3.273608e-05
7.884737e-06
1.899100e-06
4.574129e-07
1.101715e-07
2.653566e-08
6.391335e-09
1.539418e-09
3.707962e-10
8.932461e-11
2.153002e-11
5.201170e-12
1.268245e-12
3.209709e-13
9.281335e-14
3.786017e-14
2.462537e-14
2.145817e-14
2.111987e-14
2.985144e-14
2.149067e-13
4.057413e-12
8.382478e-11
1.739727e-09
3.611484e-08
7.497126e-07
1.556339e-05
3.230826e-04
6.706919e-03
1.392299e-01
2.890293e+00
8.000000e+00
8.000000e+00
2.890293e+00
6.961494e-01
1.676730e-01
4.038533e-02
9.727119e-03
2.342852e-03
5.642940e-04
1.359146e-04
3.273608e-05
7.884737e-06
1.899100e-06
4.574129e-07
1.101714e-07
2.653565e-08
6.391321e-09
1.539403e-09
3.707816e-10
8.931005e-11
2.151544e-11
5.186588e-12
1.253659e-12
3.063831e-13
7.822468e-14
2.327112e-14
1.003617e-14
6.868904e-15
6.530589e-15
1.526219e-14
2.003176e-13
4.042824e-12
8.381019e-11
1.739712e-09
3.611482e-08
7.497126e-07
1.556339e-05
3.230826e-04
6.706919e-03
1.392299e-01
2.890293e+00
8.000000e+00
8.000000e+00
2.890293e+00
6.961494e-01
1.676730e-01
4.038533e-02
9.727119e-03
2.342852e-03
5.642940e-04
1.359146e-04
3.273608e-05
7.884737e-06
1.899100e-06
4.574129e-07
1.101714e-07
2.653565e-08
6.391317e-09
1.539399e-09
3.707775e-10
8.930589e-11
2.151128e-11
5.182423e-12
1.249492e-12
3.022154e-13
7.405657e-14
1.910287e-14
5.867847e-15
2.700551e-15
2.362226e-15
1.109383e-14
1.961493e-13
4.038656e-12
8.380603e-11
1.739708e-09
3.611482e-08
7.497126e-07
1.556339e-05
3.230826e-04
6.706919e-03
1.392299e-01
2.890293e+00
8.000000e+00
8.000000e+00
2.890293e+00
6.961494e-01
1.676730e-01
4.038533e-02
9.727119e-03
2.342852e-03
5.642940e-04
1.359146e-04
3.273608e-05
7.884737e-06
1.899100e-06
4.574129e-07
1.101714e-07
2.653564e-08
6.391316e-09
1.539398e-09
3.707763e-10
8.930470e-11
2.151009e-11
5.181233e-12
1.248301e-12
3.010246e-13
7.286572e-14
1.791195e-14
4.676904e-15
1.509596e-15
1.171267e-15
9.902877e-15
1.949583e-13
4.037465e-12
8.380484e-11
1.739707e-09
3.611482e-08
7.497126e-07
1.556339e-05
3.230826e-04
6.706919e-03
1.392299e-01
2.890293e+00
8.000000e+00
8.000000e+00
2.890293e+00
6.961494e-01
1.676730e-01
4.038533e-02
9.727119e-03
2.342852e-03
5.642940e-04
1.359146e-04
3.273608e-05
7.884737e-06
1.899100e-06
4.574129e-07
1.101714e-07
2.653564e-08
6.391315e-09
1.539398e-09
3.707760e-10
8.930437e-11
2.150975e-11
5.180893e-12
1.247961e-12
3.006845e-13
7.252549e-14
1.757170e-14
4.336638e-15
1.169324e-15
8.309935e-16
9.562604e-15
1.946181e-13
4.037125e-12
8.380449e-11
1.739707e-09
3.611482e-08
7.497126e-07
1.556339e-05
3.230826e-04
6.706919e-03
1.392299e-01
2.890293e+00
8.000000e+00
8.000000e+00
2.890293e+00
6.961494e-01
1.676730e-01
4.038533e-02
9.727119e-03
2.342852e-03
5.642940e-04
1.359146e-04
3.273608e-05
7.884737e-06
1.899100e-06
4.574129e-07
1.101714e-07
2.653564e-08
6.391315e-09
1.539398e-09
3.707759e-10
8.930427e-11
2.150965e-11
5.180796e-12
1.247864e-12
3.005873e-13
7.242829e-14
1.747448e-14
4.239420e-15
1.072104e-15
7.337728e-16
9.465383e-15
1.945209e-13
4.037028e-12
8.380440e-11
1.739707e-09
3.611482e-08
7.497126e-07
1.556339e-05
3.230826e-04
6.706919e-03
1.392299e-01
2.890293e+00
8.000000e+00
8.000000e+00
2.890293e+00
6.961494e-01
1.676730e-01
4.038533e-02
9.727119e-03
2.342852e-03
5.642940e-04
1.359146e-04
3.273608e-05
7.884737e-06
1.899100e-06
4.574129e-07
1.101714e-07
2.653564e-08
6.391315e-09
1.539398e-09
3.707759e-10
8.930424e-11
2.150963e-11
5.180768e-12
1.247837e-12
3.005595e-13
7.240052e-14
1.744671e-14
4.211644e-15
1.044327e-15
7.059955e-16
9.437606e-15
1.944931e-13
4.037000e-12
8.380437e-11
1.739707e-09
3.611482e-08
7.497126e-07
1.556339e-05
3.230826e-04
6.706919e-03
1.392299e-01
2.890293e+00
8.000000e+00
8.000000e+00
2.890293e+00
6.961494e-01
1.676730e-01
4.038533e-02
9.727119e-03
2.342852e-03
5.642940e-04
1.359146e-04
3.273608e-05
7.884737e-06
1.899100e-06
4.574129e-07
1.101714e-07
2.653564e-08
6.391315e-09
1.539398e-09
3.707758e-10
8.930423e-11
2.150962e-11
5.180760e-12
1.247829e-12
3.005516e-13
7.239258e-14
1.743877e-14
4.203708e-15
1.036391e-15
6.980592e-16
9.429670e-15
1.944851e-13
4.036992e-12
8.380436e-11
1.739707e-09
3.611482e-08
7.497126e-07
1.556339e-05
3.230826e-04
6.706919e-03
1.392299e-01
2.890293e+00
8.000000e+00
8.000000e+00
2.890293e+00
6.961494e-01
1.676730e-01
4.038533e-02
9.727119e-03
2.342852e-03
5.642940e-04
1.359146e-04
3.273608e-05
7.884737e-06
1.899100e-06
4.574129e-07
1.101714e-07
2.653564e-08
6.391315e-09
1.539398e-09
3.707758e-10
8.930423e-11
2.150962e-11
5.180758e-12
1.247826e-12
3.005493e-13
7.239032e-14
1.743651e-14
4.201441e-15
1.034124e-15
6.957917e-16
9.427402e-15
1.944829e-13
4.036990e-12
8.380436e-11
1.739707e-09
3.611482e-08
7.497126e-07
1.556339e-05
3.230826e-04
6.706919e-03
1.392299e-01
2.890293e+00
8.000000e+00
8.000000e+00
2.890293e+00
6.961494e-01
1.676730e-01
4.038533e-02
9.727119e-03
2.342852e-03
5.642940e-04
1.359146e-04
3.273608e-05
7.884737e-06
1.899100e-06
4.574129e-07
1.101714e-07
2.653564e-08
6.391315e-09
1.539398e-09
3.707758e-10
8.930423e-11
2.150961e-11
5.180757e-12
1.247826e-12
3.005487e-13
7.238967e-14
1.743586e-14
4.200793e-15
1.033476e-15
6.951439e-16
9.426754e-15
1.944822e-13
4.036989e-12
8.380436e-11
1.739707e-09
3.611482e-08
7.497126e-07
1.556339e-05
3.230826e-04
6.706919e-03
1.392299e-01
2.890293e+00
8.000000e+00
8.000000e+00
2.890293e+00
6.961494e-01
1.676730e-01
4.038533e-02
9.727119e-03
2.342852e-03
5.642940e-04
1.359146e-04
3.273608e-05
7.884737e-06
1.899100e-06
4.574129e-07
1.101714e-07
2.653564e-08
6.391315e-09
1.539398e-09
3.707758e-10
8.930423e-11
2.150961e-11
5.180757e-12
1.247825e-12
3.005485e-13
7.238948e-14
1.743567e-14
4.200608e-15
1.033291e-15
6.949588e-16
9.426569e-15
1.944820e-13
4.036989e-12
8.380436e-11
1.739707e-09
3.611482e-08
7.497126e-07
1.556339e-05
3.230826e-04
6.706919e-03
1.392299e-01
2.890293e+00
8.000000e+00
8.000000e+00
2.890293e+00
6.961494e-01
1.676730e-01
4.038533e-02
9.727119e-03
2.342852e-03
5.642940e-04
1.359146e-04
3.273608e-05
7.884737e-06
1.899100e-06
4.574129e-07
1.101714e-07
2.653564e-08
6.391315e-09
1.539398e-09
3.707758e-10
8.930423e-11
2.150961e-11
5.180757e-12
1.247825e-12
3.005484e-13
7.238943e-14
1.743562e-14
4.200555e-15
1.033238e-15
6.949059e-16
9.426516e-15
1.944820e-13
4.036989e-12
8.380436e-11
1.739707e-09
3.611482e-08
7.497126e-07
1.556339e-05
3.230826e-04
6.706919e-03
1.392299e-01
2.890293e+00
8.000000e+00
8.000000e+00
4.909104e+00
3.456665e+00
3.065325e+00
2.978097e+00
2.971511e+00
2.985074e+00
3.003072e+00
3.021461e+00
3.039152e+00
3.055798e+00
3.071238e+00
3.085363e+00
3.098081e+00
3.109315e+00
3.118994e+00
3.127058e+00
3.133458e+00
3.138155e+00
3.141119e+00
3.142332e+00
3.141787e+00
3.139488e+00
3.135447e+00
3.129691e+00
3.122254e+00
3.113182e+00
3.102533e+00
3.090370e+00
3.076769e+00
3.061814e+00
3.045598e+00
3.028219e+00
3.009786e+00
2.990412e+00
2.970231e+00
2.949645e+00
2.934568e+00
3.045193e+00
5.374058e+00
8.000000e+00
8.000000e+00
8.062767e+00
8.125148e+00
8.186756e+00
8.247214e+00
8.306147e+00
8.363192e+00
8.417999e+00
8.470228e+00
8.519558e+00
8.565685e+00
8.608325e+00
8.647214e+00
8.682112e+00
8.712805e+00
8.739104e+00
8.760845e+00
8.777896e+00
8.790151e+00
8.797534e+00
8.800000e+00
8.797534e+00
8.790151e+00
8.777896e+00
8.760845e+00
8.739104e+00
8.712805e+00
8.682112e+00
8.647214e+00
8.608325e+00
8.565685e+00
8.519558e+00
8.470228e+00
8.417999e+00
8.363192e+00
8.306147e+00
8.247214e+00
8.186756e+00
8.125148e+00
8.062767e+00
8.000000e+00
