# vtk DataFile Version 3.0
9 points difference shceme(2-order bound)_
ASCII
DATASET STRUCTURED_POINTS
DIMENSIONS 11 11 1
ORIGIN 0.0 0.0 0.0
SPACING 0.1 0.1 1.0
POINT_DATA 121
SCALARS Temperature double 1
LOOKUP_TABLE default
1.000000e+001
1.000000e+001
1.000000e+001
1.000000e+001
1.000000e+001
1.000000e+001
1.000000e+001
1.000000e+001
1.000000e+001
1.000000e+001
1.000000e+001
1.000000e+001
1.000858e+001
1.001630e+001
1.002244e+001
1.002637e+001
1.002773e+001
1.002637e+001
1.002244e+001
1.001630e+001
1.000858e+001
1.000000e+001
1.000000e+001
1.001800e+001
1.003421e+001
1.004707e+001
1.005533e+001
1.005817e+001
1.005533e+001
1.004707e+001
1.003421e+001
1.001800e+001
1.000000e+001
1.000000e+001
1.002921e+001
1.005551e+001
1.007638e+001
1.008979e+001
1.009440e+001
1.008979e+001
1.007638e+001
1.005551e+001
1.002921e+001
1.000000e+001
1.000000e+001
1.004332e+001
1.008233e+001
1.011329e+001
1.013317e+001
1.014002e+001
1.013317e+001
1.011329e+001
1.008233e+001
1.004332e+001
1.000000e+001
1.000000e+001
1.006174e+001
1.011734e+001
1.016147e+001
1.018980e+001
1.019957e+001
1.018980e+001
1.016147e+001
1.011734e+001
1.006174e+001
1.000000e+001
1.000000e+001
1.008630e+001
1.016402e+001
1.022571e+001
1.026531e+001
1.027896e+001
1.026531e+001
1.022571e+001
1.016402e+001
1.008630e+001
1.000000e+001
1.000000e+001
1.011943e+001
1.022700e+001
1.031239e+001
1.036721e+001
1.038610e+001
1.036721e+001
1.031239e+001
1.022700e+001
1.011943e+001
1.000000e+001
1.000000e+001
1.016440e+001
1.031255e+001
1.043013e+001
1.050563e+001
1.053165e+001
1.050563e+001
1.043013e+001
1.031255e+001
1.016440e+001
1.000000e+001
1.000000e+001
1.022565e+001
1.042916e+001
1.059067e+001
1.069436e+001
1.073009e+001
1.069436e+001
1.059067e+001
1.042916e+001
1.022565e+001
1.000000e+001
1.000000e+001
1.030902e+001
1.058779e+001
1.080902e+001
1.095106e+001
1.100000e+001
1.095106e+001
1.080902e+001
1.058779e+001
1.030902e+001
1.000000e+001
