# vtk DataFile Version 3.0
steady_diffusion_2D_improved
ASCII
DATASET STRUCTURED_POINTS
DIMENSIONS 21 21 1
ORIGIN 0.0 0.0 0.0
SPACING 0.05 0.05 1.0
POINT_DATA 441
SCALARS Temperature double 1
LOOKUP_TABLE default
1.000000e+01
1.000000e+01
1.000000e+01
1.000000e+01
1.000000e+01
1.000000e+01
1.000000e+01
1.000000e+01
1.000000e+01
1.000000e+01
1.000000e+01
1.000000e+01
1.000000e+01
1.000000e+01
1.000000e+01
1.000000e+01
1.000000e+01
1.000000e+01
1.000000e+01
1.000000e+01
1.000000e+01
1.000000e+01
1.000214e+01
1.000422e+01
1.000620e+01
1.000803e+01
1.000966e+01
1.001105e+01
1.001217e+01
1.001299e+01
1.001349e+01
1.001366e+01
1.001349e+01
1.001299e+01
1.001217e+01
1.001105e+01
1.000966e+01
1.000803e+01
1.000620e+01
1.000422e+01
1.000214e+01
1.000000e+01
1.000000e+01
1.000433e+01
1.000855e+01
1.001256e+01
1.001626e+01
1.001956e+01
1.002238e+01
1.002464e+01
1.002630e+01
1.002732e+01
1.002766e+01
1.002732e+01
1.002630e+01
1.002464e+01
1.002238e+01
1.001956e+01
1.001626e+01
1.001256e+01
1.000855e+01
1.000433e+01
1.000000e+01
1.000000e+01
1.000662e+01
1.001308e+01
1.001922e+01
1.002489e+01
1.002994e+01
1.003425e+01
1.003772e+01
1.004027e+01
1.004182e+01
1.004234e+01
1.004182e+01
1.004027e+01
1.003772e+01
1.003425e+01
1.002994e+01
1.002489e+01
1.001922e+01
1.001308e+01
1.000662e+01
1.000000e+01
1.000000e+01
1.000908e+01
1.001794e+01
1.002636e+01
1.003413e+01
1.004106e+01
1.004698e+01
1.005174e+01
1.005522e+01
1.005735e+01
1.005806e+01
1.005735e+01
1.005522e+01
1.005174e+01
1.004698e+01
1.004106e+01
1.003413e+01
1.002636e+01
1.001794e+01
1.000908e+01
1.000000e+01
1.000000e+01
1.001177e+01
1.002325e+01
1.003415e+01
1.004422e+01
1.005319e+01
1.006086e+01
1.006703e+01
1.007155e+01
1.007430e+01
1.007523e+01
1.007430e+01
1.007155e+01
1.006703e+01
1.006086e+01
1.005319e+01
1.004422e+01
1.003415e+01
1.002325e+01
1.001177e+01
1.000000e+01
1.000000e+01
1.001475e+01
1.002913e+01
1.004279e+01
1.005540e+01
1.006665e+01
1.007625e+01
1.008398e+01
1.008964e+01
1.009309e+01
1.009425e+01
1.009309e+01
1.008964e+01
1.008398e+01
1.007625e+01
1.006665e+01
1.005540e+01
1.004279e+01
1.002913e+01
1.001475e+01
1.000000e+01
1.000000e+01
1.001809e+01
1.003572e+01
1.005248e+01
1.006795e+01
1.008174e+01
1.009353e+01
1.010300e+01
1.010995e+01
1.011418e+01
1.011560e+01
1.011418e+01
1.010995e+01
1.010300e+01
1.009353e+01
1.008174e+01
1.006795e+01
1.005248e+01
1.003572e+01
1.001809e+01
1.000000e+01
1.000000e+01
1.002187e+01
1.004321e+01
1.006348e+01
1.008218e+01
1.009886e+01
1.011311e+01
1.012458e+01
1.013297e+01
1.013809e+01
1.013981e+01
1.013809e+01
1.013297e+01
1.012458e+01
1.011311e+01
1.009886e+01
1.008218e+01
1.006348e+01
1.004321e+01
1.002187e+01
1.000000e+01
1.000000e+01
1.002620e+01
1.005176e+01
1.007604e+01
1.009844e+01
1.011843e+01
1.013550e+01
1.014923e+01
1.015929e+01
1.016542e+01
1.016748e+01
1.016542e+01
1.015929e+01
1.014923e+01
1.013550e+01
1.011843e+01
1.009844e+01
1.007604e+01
1.005176e+01
1.002620e+01
1.000000e+01
1.000000e+01
1.003118e+01
1.006159e+01
1.009048e+01
1.011714e+01
1.014092e+01
1.016123e+01
1.017757e+01
1.018954e+01
1.019684e+01
1.019929e+01
1.019684e+01
1.018954e+01
1.017757e+01
1.016123e+01
1.014092e+01
1.011714e+01
1.009048e+01
1.006159e+01
1.003118e+01
1.000000e+01
1.000000e+01
1.003693e+01
1.007294e+01
1.010716e+01
1.013874e+01
1.016690e+01
1.019095e+01
1.021030e+01
1.022448e+01
1.023312e+01
1.023603e+01
1.023312e+01
1.022448e+01
1.021030e+01
1.019095e+01
1.016690e+01
1.013874e+01
1.010716e+01
1.007294e+01
1.003693e+01
1.000000e+01
1.000000e+01
1.004359e+01
1.008610e+01
1.012648e+01
1.016376e+01
1.019700e+01
1.022539e+01
1.024823e+01
1.026496e+01
1.027517e+01
1.027860e+01
1.027517e+01
1.026496e+01
1.024823e+01
1.022539e+01
1.019700e+01
1.016376e+01
1.012648e+01
1.008610e+01
1.004359e+01
1.000000e+01
1.000000e+01
1.005132e+01
1.010138e+01
1.014894e+01
1.019283e+01
1.023197e+01
1.026541e+01
1.029230e+01
1.031200e+01
1.032402e+01
1.032806e+01
1.032402e+01
1.031200e+01
1.029230e+01
1.026541e+01
1.023197e+01
1.019283e+01
1.014894e+01
1.010138e+01
1.005132e+01
1.000000e+01
1.000000e+01
1.006033e+01
1.011917e+01
1.017508e+01
1.022667e+01
1.027268e+01
1.031198e+01
1.034360e+01
1.036676e+01
1.038088e+01
1.038563e+01
1.038088e+01
1.036676e+01
1.034360e+01
1.031198e+01
1.027268e+01
1.022667e+01
1.017508e+01
1.011917e+01
1.006033e+01
1.000000e+01
1.000000e+01
1.007083e+01
1.013991e+01
1.020554e+01
1.026611e+01
1.032013e+01
1.036627e+01
1.040339e+01
1.043058e+01
1.044716e+01
1.045274e+01
1.044716e+01
1.043058e+01
1.040339e+01
1.036627e+01
1.032013e+01
1.026611e+01
1.020554e+01
1.013991e+01
1.007083e+01
1.000000e+01
1.000000e+01
1.008308e+01
1.016410e+01
1.024109e+01
1.031214e+01
1.037550e+01
1.042962e+01
1.047316e+01
1.050504e+01
1.052450e+01
1.053103e+01
1.052450e+01
1.050504e+01
1.047316e+01
1.042962e+01
1.037550e+01
1.031214e+01
1.024109e+01
1.016410e+01
1.008308e+01
1.000000e+01
1.000000e+01
1.009738e+01
1.019236e+01
1.028260e+01
1.036588e+01
1.044015e+01
1.050358e+01
1.055462e+01
1.059200e+01
1.061480e+01
1.062246e+01
1.061480e+01
1.059200e+01
1.055462e+01
1.050358e+01
1.044015e+01
1.036588e+01
1.028260e+01
1.019236e+01
1.009738e+01
1.000000e+01
1.000000e+01
1.011409e+01
1.022536e+01
1.033109e+01
1.042866e+01
1.051568e+01
1.059000e+01
1.064980e+01
1.069359e+01
1.072030e+01
1.072928e+01
1.072030e+01
1.069359e+01
1.064980e+01
1.059000e+01
1.051568e+01
1.042866e+01
1.033109e+01
1.022536e+01
1.011409e+01
1.000000e+01
1.000000e+01
1.013362e+01
1.026394e+01
1.038777e+01
1.050204e+01
1.060396e+01
1.069100e+01
1.076103e+01
1.081232e+01
1.084361e+01
1.085413e+01
1.084361e+01
1.081232e+01
1.076103e+01
1.069100e+01
1.060396e+01
1.050204e+01
1.038777e+01
1.026394e+01
1.013362e+01
1.000000e+01
1.000000e+01
1.015643e+01
1.030902e+01
1.045399e+01
1.058779e+01
1.070711e+01
1.080902e+01
1.089101e+01
1.095106e+01
1.098769e+01
1.100000e+01
1.098769e+01
1.095106e+01
1.089101e+01
1.080902e+01
1.070711e+01
1.058779e+01
1.045399e+01
1.030902e+01
1.015643e+01
1.000000e+01
