# vtk DataFile Version 3.0
steady_diffusion_2D
ASCII
DATASET STRUCTURED_POINTS
DIMENSIONS 21 21 1
ORIGIN 0.0 0.0 0.0
SPACING 0.05 0.05 1.0
POINT_DATA 441
SCALARS Temperature double 1
LOOKUP_TABLE default
1.000000e+001
1.000000e+001
1.000000e+001
1.000000e+001
1.000000e+001
1.000000e+001
1.000000e+001
1.000000e+001
1.000000e+001
1.000000e+001
1.000000e+001
1.000000e+001
1.000000e+001
1.000000e+001
1.000000e+001
1.000000e+001
1.000000e+001
1.000000e+001
1.000000e+001
1.000000e+001
1.000000e+001
1.000000e+001
1.000215e+001
1.000424e+001
1.000623e+001
1.000806e+001
1.000970e+001
1.001110e+001
1.001222e+001
1.001305e+001
1.001355e+001
1.001372e+001
1.001355e+001
1.001305e+001
1.001222e+001
1.001110e+001
1.000970e+001
1.000806e+001
1.000623e+001
1.000424e+001
1.000215e+001
1.000000e+001
1.000000e+001
1.000434e+001
1.000858e+001
1.001261e+001
1.001632e+001
1.001964e+001
1.002247e+001
1.002475e+001
1.002641e+001
1.002743e+001
1.002777e+001
1.002743e+001
1.002641e+001
1.002475e+001
1.002247e+001
1.001964e+001
1.001632e+001
1.001261e+001
1.000858e+001
1.000434e+001
1.000000e+001
1.000000e+001
1.000665e+001
1.001314e+001
1.001930e+001
1.002499e+001
1.003006e+001
1.003439e+001
1.003788e+001
1.004043e+001
1.004199e+001
1.004251e+001
1.004199e+001
1.004043e+001
1.003788e+001
1.003439e+001
1.003006e+001
1.002499e+001
1.001930e+001
1.001314e+001
1.000665e+001
1.000000e+001
1.000000e+001
1.000912e+001
1.001802e+001
1.002647e+001
1.003427e+001
1.004122e+001
1.004716e+001
1.005194e+001
1.005544e+001
1.005758e+001
1.005830e+001
1.005758e+001
1.005544e+001
1.005194e+001
1.004716e+001
1.004122e+001
1.003427e+001
1.002647e+001
1.001802e+001
1.000912e+001
1.000000e+001
1.000000e+001
1.001181e+001
1.002334e+001
1.003429e+001
1.004439e+001
1.005340e+001
1.006110e+001
1.006729e+001
1.007182e+001
1.007459e+001
1.007552e+001
1.007459e+001
1.007182e+001
1.006729e+001
1.006110e+001
1.005340e+001
1.004439e+001
1.003429e+001
1.002334e+001
1.001181e+001
1.000000e+001
1.000000e+001
1.001480e+001
1.002923e+001
1.004295e+001
1.005560e+001
1.006689e+001
1.007653e+001
1.008429e+001
1.008997e+001
1.009344e+001
1.009460e+001
1.009344e+001
1.008997e+001
1.008429e+001
1.007653e+001
1.006689e+001
1.005560e+001
1.004295e+001
1.002923e+001
1.001480e+001
1.000000e+001
1.000000e+001
1.001815e+001
1.003585e+001
1.005267e+001
1.006819e+001
1.008203e+001
1.009386e+001
1.010337e+001
1.011033e+001
1.011458e+001
1.011601e+001
1.011458e+001
1.011033e+001
1.010337e+001
1.009386e+001
1.008203e+001
1.006819e+001
1.005267e+001
1.003585e+001
1.001815e+001
1.000000e+001
1.000000e+001
1.002194e+001
1.004335e+001
1.006369e+001
1.008245e+001
1.009919e+001
1.011349e+001
1.012499e+001
1.013341e+001
1.013855e+001
1.014028e+001
1.013855e+001
1.013341e+001
1.012499e+001
1.011349e+001
1.009919e+001
1.008245e+001
1.006369e+001
1.004335e+001
1.002194e+001
1.000000e+001
1.000000e+001
1.002628e+001
1.005191e+001
1.007627e+001
1.009875e+001
1.011879e+001
1.013591e+001
1.014969e+001
1.015978e+001
1.016593e+001
1.016800e+001
1.016593e+001
1.015978e+001
1.014969e+001
1.013591e+001
1.011879e+001
1.009875e+001
1.007627e+001
1.005191e+001
1.002628e+001
1.000000e+001
1.000000e+001
1.003126e+001
1.006176e+001
1.009073e+001
1.011747e+001
1.014132e+001
1.016169e+001
1.017807e+001
1.019008e+001
1.019740e+001
1.019986e+001
1.019740e+001
1.019008e+001
1.017807e+001
1.016169e+001
1.014132e+001
1.011747e+001
1.009073e+001
1.006176e+001
1.003126e+001
1.000000e+001
1.000000e+001
1.003702e+001
1.007312e+001
1.010743e+001
1.013909e+001
1.016733e+001
1.019144e+001
1.021084e+001
1.022505e+001
1.023372e+001
1.023664e+001
1.023372e+001
1.022505e+001
1.021084e+001
1.019144e+001
1.016733e+001
1.013909e+001
1.010743e+001
1.007312e+001
1.003702e+001
1.000000e+001
1.000000e+001
1.004368e+001
1.008629e+001
1.012677e+001
1.016413e+001
1.019745e+001
1.022591e+001
1.024881e+001
1.026558e+001
1.027580e+001
1.027924e+001
1.027580e+001
1.026558e+001
1.024881e+001
1.022591e+001
1.019745e+001
1.016413e+001
1.012677e+001
1.008629e+001
1.004368e+001
1.000000e+001
1.000000e+001
1.005142e+001
1.010158e+001
1.014924e+001
1.019322e+001
1.023244e+001
1.026594e+001
1.029290e+001
1.031264e+001
1.032468e+001
1.032872e+001
1.032468e+001
1.031264e+001
1.029290e+001
1.026594e+001
1.023244e+001
1.019322e+001
1.014924e+001
1.010158e+001
1.005142e+001
1.000000e+001
1.000000e+001
1.006043e+001
1.011937e+001
1.017538e+001
1.022706e+001
1.027316e+001
1.031252e+001
1.034420e+001
1.036739e+001
1.038154e+001
1.038630e+001
1.038154e+001
1.036739e+001
1.034420e+001
1.031252e+001
1.027316e+001
1.022706e+001
1.017538e+001
1.011937e+001
1.006043e+001
1.000000e+001
1.000000e+001
1.007093e+001
1.014010e+001
1.020583e+001
1.026649e+001
1.032059e+001
1.036680e+001
1.040397e+001
1.043120e+001
1.044781e+001
1.045339e+001
1.044781e+001
1.043120e+001
1.040397e+001
1.036680e+001
1.032059e+001
1.026649e+001
1.020583e+001
1.014010e+001
1.007093e+001
1.000000e+001
1.000000e+001
1.008317e+001
1.016429e+001
1.024136e+001
1.031249e+001
1.037593e+001
1.043011e+001
1.047369e+001
1.050562e+001
1.052509e+001
1.053164e+001
1.052509e+001
1.050562e+001
1.047369e+001
1.043011e+001
1.037593e+001
1.031249e+001
1.024136e+001
1.016429e+001
1.008317e+001
1.000000e+001
1.000000e+001
1.009746e+001
1.019251e+001
1.028283e+001
1.036618e+001
1.044052e+001
1.050400e+001
1.055508e+001
1.059249e+001
1.061531e+001
1.062298e+001
1.061531e+001
1.059249e+001
1.055508e+001
1.050400e+001
1.044052e+001
1.036618e+001
1.028283e+001
1.019251e+001
1.009746e+001
1.000000e+001
1.000000e+001
1.011414e+001
1.022548e+001
1.033126e+001
1.042889e+001
1.051595e+001
1.059031e+001
1.065014e+001
1.069395e+001
1.072068e+001
1.072967e+001
1.072068e+001
1.069395e+001
1.065014e+001
1.059031e+001
1.051595e+001
1.042889e+001
1.033126e+001
1.022548e+001
1.011414e+001
1.000000e+001
1.000000e+001
1.013364e+001
1.026400e+001
1.038785e+001
1.050215e+001
1.060409e+001
1.069116e+001
1.076120e+001
1.081250e+001
1.084380e+001
1.085431e+001
1.084380e+001
1.081250e+001
1.076120e+001
1.069116e+001
1.060409e+001
1.050215e+001
1.038785e+001
1.026400e+001
1.013364e+001
1.000000e+001
1.000000e+001
1.015643e+001
1.030902e+001
1.045399e+001
1.058779e+001
1.070711e+001
1.080902e+001
1.089101e+001
1.095106e+001
1.098769e+001
1.100000e+001
1.098769e+001
1.095106e+001
1.089101e+001
1.080902e+001
1.070711e+001
1.058779e+001
1.045399e+001
1.030902e+001
1.015643e+001
1.000000e+001
