# vtk DataFile Version 3.0
steady_diffusion_2D
ASCII
DATASET STRUCTURED_POINTS
DIMENSIONS 20 20 1
ORIGIN 0.0 0.0 0.0
SPACING 0.05 0.05 1.0
POINT_DATA 400
SCALARS Temperature double 1
LOOKUP_TABLE default
1.000053e+001
1.000159e+001
1.000261e+001
1.000356e+001
1.000443e+001
1.000518e+001
1.000581e+001
1.000630e+001
1.000663e+001
1.000680e+001
1.000680e+001
1.000663e+001
1.000630e+001
1.000581e+001
1.000518e+001
1.000443e+001
1.000356e+001
1.000261e+001
1.000159e+001
1.000053e+001
1.000162e+001
1.000481e+001
1.000789e+001
1.001077e+001
1.001339e+001
1.001568e+001
1.001758e+001
1.001905e+001
1.002005e+001
1.002055e+001
1.002055e+001
1.002005e+001
1.001905e+001
1.001758e+001
1.001568e+001
1.001339e+001
1.001077e+001
1.000789e+001
1.000481e+001
1.000162e+001
1.000274e+001
1.000815e+001
1.001337e+001
1.001825e+001
1.002268e+001
1.002656e+001
1.002978e+001
1.003227e+001
1.003396e+001
1.003482e+001
1.003482e+001
1.003396e+001
1.003227e+001
1.002978e+001
1.002656e+001
1.002268e+001
1.001825e+001
1.001337e+001
1.000815e+001
1.000274e+001
1.000393e+001
1.001169e+001
1.001917e+001
1.002618e+001
1.003254e+001
1.003809e+001
1.004271e+001
1.004628e+001
1.004871e+001
1.004994e+001
1.004994e+001
1.004871e+001
1.004628e+001
1.004271e+001
1.003809e+001
1.003254e+001
1.002618e+001
1.001917e+001
1.001169e+001
1.000393e+001
1.000522e+001
1.001552e+001
1.002545e+001
1.003475e+001
1.004319e+001
1.005057e+001
1.005670e+001
1.006144e+001
1.006466e+001
1.006629e+001
1.006629e+001
1.006466e+001
1.006144e+001
1.005670e+001
1.005057e+001
1.004319e+001
1.003475e+001
1.002545e+001
1.001552e+001
1.000522e+001
1.000663e+001
1.001974e+001
1.003235e+001
1.004417e+001
1.005490e+001
1.006428e+001
1.007208e+001
1.007810e+001
1.008220e+001
1.008428e+001
1.008428e+001
1.008220e+001
1.007810e+001
1.007208e+001
1.006428e+001
1.005490e+001
1.004417e+001
1.003235e+001
1.001974e+001
1.000663e+001
1.000821e+001
1.002443e+001
1.004005e+001
1.005469e+001
1.006797e+001
1.007959e+001
1.008924e+001
1.009669e+001
1.010177e+001
1.010434e+001
1.010434e+001
1.010177e+001
1.009669e+001
1.008924e+001
1.007959e+001
1.006797e+001
1.005469e+001
1.004005e+001
1.002443e+001
1.000821e+001
1.000999e+001
1.002973e+001
1.004874e+001
1.006655e+001
1.008271e+001
1.009685e+001
1.010859e+001
1.011767e+001
1.012384e+001
1.012697e+001
1.012697e+001
1.012384e+001
1.011767e+001
1.010859e+001
1.009685e+001
1.008271e+001
1.006655e+001
1.004874e+001
1.002973e+001
1.000999e+001
1.001202e+001
1.003576e+001
1.005863e+001
1.008004e+001
1.009949e+001
1.011649e+001
1.013062e+001
1.014153e+001
1.014896e+001
1.015272e+001
1.015272e+001
1.014896e+001
1.014153e+001
1.013062e+001
1.011649e+001
1.009949e+001
1.008004e+001
1.005863e+001
1.003576e+001
1.001202e+001
1.001434e+001
1.004267e+001
1.006996e+001
1.009551e+001
1.011872e+001
1.013900e+001
1.015587e+001
1.016889e+001
1.017775e+001
1.018224e+001
1.018224e+001
1.017775e+001
1.016889e+001
1.015587e+001
1.013900e+001
1.011872e+001
1.009551e+001
1.006996e+001
1.004267e+001
1.001434e+001
1.001702e+001
1.005064e+001
1.008301e+001
1.011334e+001
1.014087e+001
1.016494e+001
1.018495e+001
1.020040e+001
1.021092e+001
1.021624e+001
1.021624e+001
1.021092e+001
1.020040e+001
1.018495e+001
1.016494e+001
1.014087e+001
1.011334e+001
1.008301e+001
1.005064e+001
1.001702e+001
1.002011e+001
1.005985e+001
1.009811e+001
1.013395e+001
1.016649e+001
1.019494e+001
1.021858e+001
1.023685e+001
1.024928e+001
1.025557e+001
1.025557e+001
1.024928e+001
1.023685e+001
1.021858e+001
1.019494e+001
1.016649e+001
1.013395e+001
1.009811e+001
1.005985e+001
1.002011e+001
1.002370e+001
1.007053e+001
1.011562e+001
1.015786e+001
1.019621e+001
1.022974e+001
1.025760e+001
1.027913e+001
1.029378e+001
1.030119e+001
1.030119e+001
1.029378e+001
1.027913e+001
1.025760e+001
1.022974e+001
1.019621e+001
1.015786e+001
1.011562e+001
1.007053e+001
1.002370e+001
1.002788e+001
1.008295e+001
1.013598e+001
1.018566e+001
1.023077e+001
1.027019e+001
1.030296e+001
1.032828e+001
1.034551e+001
1.035423e+001
1.035423e+001
1.034551e+001
1.032828e+001
1.030296e+001
1.027019e+001
1.023077e+001
1.018566e+001
1.013598e+001
1.008295e+001
1.002788e+001
1.003274e+001
1.009741e+001
1.015968e+001
1.021803e+001
1.027100e+001
1.031730e+001
1.035579e+001
1.038551e+001
1.040575e+001
1.041599e+001
1.041599e+001
1.040575e+001
1.038551e+001
1.035579e+001
1.031730e+001
1.027100e+001
1.021803e+001
1.015968e+001
1.009741e+001
1.003274e+001
1.003841e+001
1.011427e+001
1.018732e+001
1.025576e+001
1.031791e+001
1.037222e+001
1.041737e+001
1.045224e+001
1.047598e+001
1.048799e+001
1.048799e+001
1.047598e+001
1.045224e+001
1.041737e+001
1.037222e+001
1.031791e+001
1.025576e+001
1.018732e+001
1.011427e+001
1.003841e+001
1.004502e+001
1.013395e+001
1.021958e+001
1.029980e+001
1.037264e+001
1.043631e+001
1.048923e+001
1.053010e+001
1.055793e+001
1.057201e+001
1.057201e+001
1.055793e+001
1.053010e+001
1.048923e+001
1.043631e+001
1.037264e+001
1.029980e+001
1.021958e+001
1.013395e+001
1.004502e+001
1.005274e+001
1.015692e+001
1.025723e+001
1.035122e+001
1.043655e+001
1.051113e+001
1.057313e+001
1.062102e+001
1.065361e+001
1.067011e+001
1.067011e+001
1.065361e+001
1.062102e+001
1.057313e+001
1.051113e+001
1.043655e+001
1.035122e+001
1.025723e+001
1.015692e+001
1.005274e+001
1.006176e+001
1.018376e+001
1.030123e+001
1.041128e+001
1.051121e+001
1.059855e+001
1.067115e+001
1.072723e+001
1.076540e+001
1.078472e+001
1.078472e+001
1.076540e+001
1.072723e+001
1.067115e+001
1.059855e+001
1.051121e+001
1.041128e+001
1.030123e+001
1.018376e+001
1.006176e+001
1.007230e+001
1.021512e+001
1.035264e+001
1.048147e+001
1.059846e+001
1.070070e+001
1.078569e+001
1.085134e+001
1.089602e+001
1.091864e+001
1.091864e+001
1.089602e+001
1.085134e+001
1.078569e+001
1.070070e+001
1.059846e+001
1.048147e+001
1.035264e+001
1.021512e+001
1.007230e+001
