# vtk DataFile Version 3.0
9 points difference shceme(6-order bound)_
ASCII
DATASET STRUCTURED_POINTS
DIMENSIONS 11 11 1
ORIGIN 0.0 0.0 0.0
SPACING 0.1 0.1 1.0
POINT_DATA 121
SCALARS Temperature double 1
LOOKUP_TABLE default
1.000000e+01
1.000000e+01
1.000000e+01
1.000000e+01
1.000000e+01
1.000000e+01
1.000000e+01
1.000000e+01
1.000000e+01
1.000000e+01
1.000000e+01
1.000000e+01
1.000855e+01
1.001625e+01
1.002237e+01
1.002630e+01
1.002765e+01
1.002630e+01
1.002237e+01
1.001625e+01
1.000855e+01
1.000000e+01
1.000000e+01
1.001794e+01
1.003413e+01
1.004697e+01
1.005522e+01
1.005806e+01
1.005522e+01
1.004697e+01
1.003413e+01
1.001794e+01
1.000000e+01
1.000000e+01
1.002912e+01
1.005539e+01
1.007624e+01
1.008963e+01
1.009424e+01
1.008963e+01
1.007624e+01
1.005539e+01
1.002912e+01
1.000000e+01
1.000000e+01
1.004320e+01
1.008217e+01
1.011310e+01
1.013296e+01
1.013980e+01
1.013296e+01
1.011310e+01
1.008217e+01
1.004320e+01
1.000000e+01
1.000000e+01
1.006158e+01
1.011713e+01
1.016121e+01
1.018952e+01
1.019927e+01
1.018952e+01
1.016121e+01
1.011713e+01
1.006158e+01
1.000000e+01
1.000000e+01
1.008608e+01
1.016374e+01
1.022537e+01
1.026493e+01
1.027857e+01
1.026493e+01
1.022537e+01
1.016374e+01
1.008608e+01
1.000000e+01
1.000000e+01
1.011915e+01
1.022664e+01
1.031195e+01
1.036672e+01
1.038559e+01
1.036672e+01
1.031195e+01
1.022664e+01
1.011915e+01
1.000000e+01
1.000000e+01
1.016408e+01
1.031210e+01
1.042957e+01
1.050499e+01
1.053098e+01
1.050499e+01
1.042957e+01
1.031210e+01
1.016408e+01
1.000000e+01
1.000000e+01
1.022534e+01
1.042862e+01
1.058994e+01
1.069352e+01
1.072921e+01
1.069352e+01
1.058994e+01
1.042862e+01
1.022534e+01
1.000000e+01
1.000000e+01
1.030902e+01
1.058779e+01
1.080902e+01
1.095106e+01
1.100000e+01
1.095106e+01
1.080902e+01
1.058779e+01
1.030902e+01
1.000000e+01
