# vtk DataFile Version 3.0
9 points difference shceme(4-order bound)
ASCII
DATASET STRUCTURED_POINTS
DIMENSIONS 41 41 1
ORIGIN 0.0 0.0 0.0
SPACING 0.025 0.025 1.0
POINT_DATA 1681
SCALARS Temperature double 1
LOOKUP_TABLE default
8.000000e+00
8.000000e+00
8.000000e+00
8.000000e+00
8.000000e+00
8.000000e+00
8.000000e+00
8.000000e+00
8.000000e+00
8.000000e+00
8.000000e+00
8.000000e+00
8.000000e+00
8.000000e+00
8.000000e+00
8.000000e+00
8.000000e+00
8.000000e+00
8.000000e+00
8.000000e+00
8.000000e+00
8.000000e+00
8.000000e+00
8.000000e+00
8.000000e+00
8.000000e+00
8.000000e+00
8.000000e+00
8.000000e+00
8.000000e+00
8.000000e+00
8.000000e+00
8.000000e+00
8.000000e+00
8.000000e+00
8.000000e+00
8.000000e+00
8.000000e+00
8.000000e+00
8.000000e+00
8.000000e+00
8.000000e+00
3.200000e+00
2.428718e+00
2.238864e+00
2.192131e+00
2.180627e+00
2.177795e+00
2.177098e+00
2.176927e+00
2.176885e+00
2.176874e+00
2.176872e+00
2.176871e+00
2.176871e+00
2.176871e+00
2.176871e+00
2.176871e+00
2.176871e+00
2.176871e+00
2.176871e+00
2.176871e+00
2.176871e+00
2.176871e+00
2.176871e+00
2.176871e+00
2.176871e+00
2.176871e+00
2.176871e+00
2.176871e+00
2.176871e+00
2.176871e+00
2.176871e+00
2.176871e+00
2.176871e+00
2.176871e+00
2.176871e+00
2.176871e+00
2.176871e+00
2.176871e+00
2.035374e+00
8.000000e+00
8.000000e+00
2.428718e+00
9.947443e-01
7.022113e-01
6.398743e-01
6.260773e-01
6.229286e-01
6.221932e-01
6.220185e-01
6.219765e-01
6.219664e-01
6.219639e-01
6.219633e-01
6.219631e-01
6.219631e-01
6.219631e-01
6.219631e-01
6.219631e-01
6.219631e-01
6.219631e-01
6.219631e-01
6.219631e-01
6.219631e-01
6.219631e-01
6.219631e-01
6.219631e-01
6.219631e-01
6.219631e-01
6.219631e-01
6.219631e-01
6.219631e-01
6.219631e-01
6.219631e-01
6.219631e-01
6.219631e-01
6.219631e-01
6.219631e-01
6.219631e-01
6.163032e-01
5.652707e-01
8.000000e+00
8.000000e+00
2.238864e+00
6.426145e-01
2.805569e-01
2.004005e-01
1.827486e-01
1.788392e-01
1.779631e-01
1.777638e-01
1.777179e-01
1.777071e-01
1.777045e-01
1.777039e-01
1.777038e-01
1.777037e-01
1.777037e-01
1.777037e-01
1.777037e-01
1.777037e-01
1.777037e-01
1.777037e-01
1.777037e-01
1.777037e-01
1.777037e-01
1.777037e-01
1.777037e-01
1.777037e-01
1.777037e-01
1.777037e-01
1.777037e-01
1.777037e-01
1.777037e-01
1.777037e-01
1.777037e-01
1.777037e-01
1.777037e-01
1.777037e-01
1.774773e-01
1.744942e-01
1.575679e-01
8.000000e+00
8.000000e+00
2.192131e+00
5.543360e-01
1.673035e-01
7.736486e-02
5.678774e-02
5.212877e-02
5.107881e-02
5.084206e-02
5.078842e-02
5.077618e-02
5.077336e-02
5.077270e-02
5.077254e-02
5.077251e-02
5.077250e-02
5.077250e-02
5.077250e-02
5.077250e-02
5.077250e-02
5.077250e-02
5.077250e-02
5.077250e-02
5.077250e-02
5.077250e-02
5.077250e-02
5.077250e-02
5.077250e-02
5.077250e-02
5.077250e-02
5.077250e-02
5.077250e-02
5.077250e-02
5.077250e-02
5.077250e-02
5.077250e-02
5.076344e-02
5.060644e-02
4.941792e-02
4.405795e-02
8.000000e+00
8.000000e+00
2.180627e+00
5.319715e-01
1.371520e-01
4.328635e-02
2.119160e-02
1.604592e-02
1.485879e-02
1.458683e-02
1.452477e-02
1.451062e-02
1.450739e-02
1.450665e-02
1.450648e-02
1.450644e-02
1.450643e-02
1.450643e-02
1.450643e-02
1.450643e-02
1.450643e-02
1.450643e-02
1.450643e-02
1.450643e-02
1.450643e-02
1.450643e-02
1.450643e-02
1.450643e-02
1.450643e-02
1.450643e-02
1.450643e-02
1.450643e-02
1.450643e-02
1.450643e-02
1.450643e-02
1.450643e-02
1.450607e-02
1.449828e-02
1.442401e-02
1.400128e-02
1.235165e-02
8.000000e+00
8.000000e+00
2.177795e+00
5.262739e-01
1.291585e-01
3.392491e-02
1.119193e-02
5.800072e-03
4.530728e-03
4.234151e-03
4.165325e-03
4.149438e-03
4.145784e-03
4.144944e-03
4.144751e-03
4.144707e-03
4.144697e-03
4.144694e-03
4.144694e-03
4.144694e-03
4.144694e-03
4.144694e-03
4.144694e-03
4.144694e-03
4.144694e-03
4.144694e-03
4.144694e-03
4.144694e-03
4.144694e-03
4.144694e-03
4.144694e-03
4.144694e-03
4.144694e-03
4.144694e-03
4.144694e-03
4.144679e-03
4.144307e-03
4.140017e-03
4.110227e-03
3.968868e-03
3.470599e-03
8.000000e+00
8.000000e+00
2.177098e+00
5.248177e-01
1.270441e-01
3.136906e-02
8.398759e-03
2.900719e-03
1.590401e-03
1.279770e-03
1.206559e-03
1.189404e-03
1.185405e-03
1.184477e-03
1.184263e-03
1.184213e-03
1.184202e-03
1.184199e-03
1.184198e-03
1.184198e-03
1.184198e-03
1.184198e-03
1.184198e-03
1.184198e-03
1.184198e-03
1.184198e-03
1.184198e-03
1.184198e-03
1.184198e-03
1.184198e-03
1.184198e-03
1.184198e-03
1.184198e-03
1.184198e-03
1.184198e-03
1.184180e-03
1.183946e-03
1.182015e-03
1.171114e-03
1.125630e-03
9.770690e-04
8.000000e+00
8.000000e+00
2.176927e+00
5.244448e-01
1.264857e-01
3.067448e-02
7.622509e-03
2.083283e-03
7.550089e-04
4.374431e-04
3.618073e-04
3.438724e-04
3.396397e-04
3.386454e-04
3.384129e-04
3.383587e-04
3.383461e-04
3.383432e-04
3.383425e-04
3.383424e-04
3.383423e-04
3.383423e-04
3.383423e-04
3.383423e-04
3.383423e-04
3.383423e-04
3.383423e-04
3.383423e-04
3.383423e-04
3.383423e-04
3.383423e-04
3.383423e-04
3.383423e-04
3.383423e-04
3.383415e-04
3.383292e-04
3.382118e-04
3.374388e-04
3.336743e-04
3.194160e-04
2.755320e-04
8.000000e+00
8.000000e+00
2.176885e+00
5.243492e-01
1.263384e-01
3.048638e-02
7.407733e-03
1.853663e-03
5.182166e-04
1.975782e-04
1.207543e-04
1.023981e-04
9.802676e-05
9.698966e-05
9.674458e-05
9.668689e-05
9.667336e-05
9.667020e-05
9.666946e-05
9.666929e-05
9.666925e-05
9.666924e-05
9.666924e-05
9.666924e-05
9.666924e-05
9.666924e-05
9.666924e-05
9.666924e-05
9.666924e-05
9.666924e-05
9.666924e-05
9.666924e-05
9.666924e-05
9.666920e-05
9.666858e-05
9.666178e-05
9.661050e-05
9.632332e-05
9.507381e-05
9.068663e-05
7.781212e-05
8.000000e+00
8.000000e+00
2.176874e+00
5.243246e-01
1.262995e-01
3.043559e-02
7.348533e-03
1.789389e-03
4.512666e-04
1.293740e-04
5.201958e-05
3.345808e-05
2.901309e-05
2.795129e-05
2.769840e-05
2.763836e-05
2.762416e-05
2.762081e-05
2.762002e-05
2.761984e-05
2.761980e-05
2.761978e-05
2.761978e-05
2.761978e-05
2.761978e-05
2.761978e-05
2.761978e-05
2.761978e-05
2.761978e-05
2.761978e-05
2.761978e-05
2.761978e-05
2.761978e-05
2.761975e-05
2.761937e-05
2.761615e-05
2.759567e-05
2.749441e-05
2.709131e-05
2.575991e-05
2.200233e-05
8.000000e+00
8.000000e+00
2.176872e+00
5.243183e-01
1.262893e-01
3.042190e-02
7.332268e-03
1.771457e-03
4.323863e-04
1.100131e-04
3.243851e-05
1.378476e-05
9.304030e-06
8.229311e-06
7.972020e-06
7.910564e-06
7.895923e-06
7.892445e-06
7.891621e-06
7.891426e-06
7.891380e-06
7.891370e-06
7.891367e-06
7.891366e-06
7.891366e-06
7.891366e-06
7.891366e-06
7.891366e-06
7.891366e-06
7.891366e-06
7.891366e-06
7.891366e-06
7.891365e-06
7.891344e-06
7.891150e-06
7.889769e-06
7.882092e-06
7.847720e-06
7.720418e-06
7.320598e-06
6.228249e-06
8.000000e+00
8.000000e+00
2.176871e+00
5.243167e-01
1.262866e-01
3.041822e-02
7.327812e-03
1.766469e-03
4.270757e-04
1.045272e-04
2.686643e-05
8.173892e-06
3.677030e-06
2.596057e-06
2.336487e-06
2.274246e-06
2.259347e-06
2.255788e-06
2.254940e-06
2.254739e-06
2.254691e-06
2.254680e-06
2.254677e-06
2.254676e-06
2.254676e-06
2.254676e-06
2.254676e-06
2.254676e-06
2.254676e-06
2.254676e-06
2.254676e-06
2.254676e-06
2.254675e-06
2.254664e-06
2.254575e-06
2.254025e-06
2.251278e-06
2.239940e-06
2.200390e-06
2.081305e-06
1.764736e-06
8.000000e+00
8.000000e+00
2.176871e+00
5.243163e-01
1.262859e-01
3.041723e-02
7.326594e-03
1.765086e-03
4.255856e-04
1.029757e-04
2.528279e-05
6.574808e-06
2.071092e-06
9.872845e-07
7.266156e-07
6.639712e-07
6.489323e-07
6.453268e-07
6.444638e-07
6.442576e-07
6.442085e-07
6.441968e-07
6.441940e-07
6.441934e-07
6.441932e-07
6.441932e-07
6.441932e-07
6.441932e-07
6.441932e-07
6.441932e-07
6.441932e-07
6.441931e-07
6.441925e-07
6.441870e-07
6.441494e-07
6.439420e-07
6.429938e-07
6.393362e-07
6.272060e-07
5.919667e-07
5.004477e-07
8.000000e+00
8.000000e+00
2.176871e+00
5.243162e-01
1.262857e-01
3.041696e-02
7.326261e-03
1.764703e-03
4.251686e-04
1.025378e-04
2.483332e-05
6.119456e-06
1.612971e-06
5.279492e-07
2.667806e-07
2.039422e-07
1.888318e-07
1.852012e-07
1.843298e-07
1.841209e-07
1.840709e-07
1.840589e-07
1.840561e-07
1.840554e-07
1.840552e-07
1.840552e-07
1.840552e-07
1.840552e-07
1.840552e-07
1.840552e-07
1.840552e-07
1.840552e-07
1.840548e-07
1.840524e-07
1.840374e-07
1.839624e-07
1.836441e-07
1.824848e-07
1.788026e-07
1.684292e-07
1.420231e-07
8.000000e+00
8.000000e+00
2.176871e+00
5.243162e-01
1.262856e-01
3.041689e-02
7.326171e-03
1.764597e-03
4.250521e-04
1.024145e-04
2.470594e-05
5.989915e-06
1.482358e-06
3.968392e-07
1.354548e-07
7.252802e-08
5.738332e-08
5.373999e-08
5.286405e-08
5.265362e-08
5.260311e-08
5.259100e-08
5.258811e-08
5.258741e-08
5.258725e-08
5.258721e-08
5.258720e-08
5.258720e-08
5.258720e-08
5.258720e-08
5.258720e-08
5.258718e-08
5.258702e-08
5.258599e-08
5.258034e-08
5.255411e-08
5.244961e-08
5.208738e-08
5.097897e-08
4.793835e-08
4.033138e-08
8.000000e+00
8.000000e+00
2.176871e+00
5.243162e-01
1.262856e-01
3.041687e-02
7.326146e-03
1.764568e-03
4.250196e-04
1.023798e-04
2.466989e-05
5.953101e-06
1.445144e-06
3.594297e-07
9.795622e-08
3.499101e-08
1.983061e-08
1.618119e-08
1.530298e-08
1.509174e-08
1.504096e-08
1.502876e-08
1.502584e-08
1.502513e-08
1.502497e-08
1.502493e-08
1.502492e-08
1.502491e-08
1.502491e-08
1.502491e-08
1.502491e-08
1.502490e-08
1.502483e-08
1.502443e-08
1.502237e-08
1.501343e-08
1.497975e-08
1.486788e-08
1.453653e-08
1.364839e-08
1.145983e-08
8.000000e+00
8.000000e+00
2.176871e+00
5.243162e-01
1.262856e-01
3.041687e-02
7.326140e-03
1.764560e-03
4.250106e-04
1.023700e-04
2.465970e-05
5.942650e-06
1.434548e-06
3.487605e-07
8.725150e-08
2.427027e-08
9.103030e-09
5.450819e-09
4.571526e-09
4.359881e-09
4.308955e-09
4.296707e-09
4.293763e-09
4.293056e-09
4.292886e-09
4.292845e-09
4.292835e-09
4.292833e-09
4.292833e-09
4.292832e-09
4.292832e-09
4.292827e-09
4.292799e-09
4.292644e-09
4.291916e-09
4.288941e-09
4.278243e-09
4.244031e-09
4.145540e-09
3.886884e-09
3.257889e-09
8.000000e+00
8.000000e+00
2.176871e+00
5.243162e-01
1.262856e-01
3.041686e-02
7.326138e-03
1.764558e-03
4.250081e-04
1.023673e-04
2.465683e-05
5.939687e-06
1.431534e-06
3.457191e-07
8.419653e-08
2.120887e-08
6.038748e-09
2.385313e-09
1.505522e-09
1.293684e-09
1.242686e-09
1.230412e-09
1.227458e-09
1.226748e-09
1.226577e-09
1.226536e-09
1.226527e-09
1.226524e-09
1.226524e-09
1.226524e-09
1.226523e-09
1.226521e-09
1.226510e-09
1.226453e-09
1.226203e-09
1.225229e-09
1.221874e-09
1.211496e-09
1.182362e-09
1.107217e-09
9.266004e-10
8.000000e+00
8.000000e+00
2.176871e+00
5.243162e-01
1.262856e-01
3.041686e-02
7.326137e-03
1.764557e-03
4.250074e-04
1.023666e-04
2.465602e-05
5.938848e-06
1.430677e-06
3.448527e-07
8.332499e-08
2.033483e-08
5.163540e-09
1.509587e-09
6.295774e-10
4.176501e-10
3.666175e-10
3.543304e-10
3.513726e-10
3.506608e-10
3.504895e-10
3.504483e-10
3.504384e-10
3.504360e-10
3.504355e-10
3.504353e-10
3.504352e-10
3.504344e-10
3.504301e-10
3.504099e-10
3.503253e-10
3.500118e-10
3.489708e-10
3.458442e-10
3.372616e-10
3.154750e-10
2.636487e-10
8.000000e+00
8.000000e+00
2.176871e+00
5.243162e-01
1.262856e-01
3.041686e-02
7.326137e-03
1.764557e-03
4.250072e-04
1.023663e-04
2.465579e-05
5.938611e-06
1.430434e-06
3.446060e-07
8.307646e-08
2.008535e-08
4.913598e-09
1.259434e-09
3.793314e-10
1.673648e-10
1.163164e-10
1.040231e-10
1.010630e-10
1.003503e-10
1.001787e-10
1.001374e-10
1.001275e-10
1.001251e-10
1.001246e-10
1.001244e-10
1.001243e-10
1.001240e-10
1.001224e-10
1.001154e-10
1.000874e-10
9.998771e-11
9.966760e-11
9.873118e-11
9.621161e-11
8.990627e-11
7.504414e-11
8.000000e+00
8.000000e+00
2.176871e+00
5.243162e-01
1.262856e-01
3.041686e-02
7.326137e-03
1.764557e-03
4.250072e-04
1.023663e-04
2.465573e-05
5.938544e-06
1.430365e-06
3.445358e-07
8.300561e-08
2.001416e-08
4.842232e-09
1.187984e-09
3.078424e-10
9.585907e-11
4.480359e-11
3.250744e-11
2.954620e-11
2.883310e-11
2.866140e-11
2.862007e-11
2.861012e-11
2.860772e-11
2.860714e-11
2.860700e-11
2.860695e-11
2.860682e-11
2.860625e-11
2.860385e-11
2.859472e-11
2.856339e-11
2.846571e-11
2.818667e-11
2.744922e-11
2.562711e-11
2.136730e-11
8.000000e+00
8.000000e+00
2.176871e+00
5.243162e-01
1.262856e-01
3.041686e-02
7.326137e-03
1.764557e-03
4.250072e-04
1.023663e-04
2.465571e-05
5.938525e-06
1.430346e-06
3.445159e-07
8.298543e-08
1.999385e-08
4.821858e-09
1.167578e-09
2.874209e-10
7.543064e-11
2.437214e-11
1.207472e-11
9.112970e-12
8.399676e-12
8.227899e-12
8.186535e-12
8.176576e-12
8.174178e-12
8.173601e-12
8.173460e-12
8.173418e-12
8.173367e-12
8.173166e-12
8.172362e-12
8.169423e-12
8.159667e-12
8.130063e-12
8.047275e-12
7.831991e-12
7.306117e-12
6.085691e-12
8.000000e+00
8.000000e+00
2.176871e+00
5.243162e-01
1.262856e-01
3.041686e-02
7.326137e-03
1.764557e-03
4.250072e-04
1.023663e-04
2.465571e-05
5.938520e-06
1.430340e-06
3.445102e-07
8.297969e-08
1.998806e-08
4.816044e-09
1.161751e-09
2.815878e-10
6.959467e-11
1.853490e-11
6.236945e-12
3.274962e-12
2.561577e-12
2.389765e-12
2.348387e-12
2.338423e-12
2.336023e-12
2.335445e-12
2.335306e-12
2.335269e-12
2.335245e-12
2.335175e-12
2.334910e-12
2.333974e-12
2.330962e-12
2.322042e-12
2.297573e-12
2.234866e-12
2.083265e-12
1.733743e-12
8.000000e+00
8.000000e+00
2.176871e+00
5.243162e-01
1.262856e-01
3.041686e-02
7.326137e-03
1.764557e-03
4.250072e-04
1.023663e-04
2.465571e-05
5.938518e-06
1.430338e-06
3.445086e-07
8.297805e-08
1.998641e-08
4.814384e-09
1.160087e-09
2.799217e-10
6.792753e-11
1.686725e-11
4.569067e-12
1.606985e-12
8.935590e-13
7.217303e-13
6.803462e-13
6.703794e-13
6.679791e-13
6.674011e-13
6.672616e-13
6.672269e-13
6.672133e-13
6.671883e-13
6.671016e-13
6.668070e-13
6.658837e-13
6.632095e-13
6.560015e-13
6.377723e-13
5.941102e-13
4.940407e-13
8.000000e+00
8.000000e+00
2.176871e+00
5.243162e-01
1.262856e-01
3.041686e-02
7.326137e-03
1.764557e-03
4.250072e-04
1.023663e-04
2.465571e-05
5.938518e-06
1.430338e-06
3.445081e-07
8.297759e-08
1.998594e-08
4.813911e-09
1.159612e-09
2.794460e-10
6.745132e-11
1.639084e-11
4.092554e-12
1.130431e-12
4.169871e-13
2.451510e-13
2.037639e-13
1.937960e-13
1.913952e-13
1.908170e-13
1.906777e-13
1.906437e-13
1.906337e-13
1.906241e-13
1.905959e-13
1.905039e-13
1.902227e-13
1.894245e-13
1.873074e-13
1.820172e-13
1.694529e-13
1.408102e-13
8.000000e+00
8.000000e+00
2.176871e+00
5.243162e-01
1.262856e-01
3.041686e-02
7.326137e-03
1.764557e-03
4.250072e-04
1.023663e-04
2.465571e-05
5.938517e-06
1.430338e-06
3.445080e-07
8.297745e-08
1.998580e-08
4.813776e-09
1.159476e-09
2.793101e-10
6.731530e-11
1.625474e-11
3.956417e-12
9.942774e-13
2.808256e-13
1.089863e-13
6.759792e-14
5.762939e-14
5.522846e-14
5.465020e-14
5.451090e-14
5.447720e-14
5.446846e-14
5.446400e-14
5.445471e-14
5.442612e-14
5.434094e-14
5.410368e-14
5.348345e-14
5.195052e-14
4.833765e-14
4.014118e-14
8.000000e+00
8.000000e+00
2.176871e+00
5.243162e-01
1.262856e-01
3.041686e-02
7.326137e-03
1.764557e-03
4.250072e-04
1.023663e-04
2.465571e-05
5.938517e-06
1.430338e-06
3.445080e-07
8.297742e-08
1.998576e-08
4.813738e-09
1.159438e-09
2.792713e-10
6.727645e-11
1.621586e-11
3.917525e-12
9.553780e-13
2.419231e-13
7.008245e-14
2.869349e-14
1.872471e-14
1.632369e-14
1.574540e-14
1.560610e-14
1.557250e-14
1.556420e-14
1.556144e-14
1.555819e-14
1.554932e-14
1.552363e-14
1.545335e-14
1.527206e-14
1.482846e-14
1.379024e-14
1.144518e-14
8.000000e+00
8.000000e+00
2.176871e+00
5.243162e-01
1.262856e-01
3.041686e-02
7.326137e-03
1.764557e-03
4.250072e-04
1.023663e-04
2.465571e-05
5.938517e-06
1.430338e-06
3.445079e-07
8.297741e-08
1.998575e-08
4.813727e-09
1.159427e-09
2.792602e-10
6.726536e-11
1.620475e-11
3.906414e-12
9.442646e-13
2.308085e-13
5.896721e-14
1.757800e-14
7.609121e-15
5.208054e-15
4.629744e-15
4.490451e-15
4.456885e-15
4.448732e-15
4.446523e-15
4.445184e-15
4.442393e-15
4.434671e-15
4.413910e-15
4.361027e-15
4.232809e-15
3.934634e-15
3.263809e-15
8.000000e+00
8.000000e+00
2.176871e+00
5.243162e-01
1.262856e-01
3.041686e-02
7.326137e-03
1.764557e-03
4.250072e-04
1.023663e-04
2.465571e-05
5.938517e-06
1.430338e-06
3.445079e-07
8.297740e-08
1.998575e-08
4.813724e-09
1.159424e-09
2.792571e-10
6.726219e-11
1.620158e-11
3.903240e-12
9.410896e-13
2.276330e-13
5.579149e-14
1.440217e-14
4.433249e-15
2.032163e-15
1.453845e-15
1.314553e-15
1.280997e-15
1.272893e-15
1.270863e-15
1.270124e-15
1.269197e-15
1.266871e-15
1.260753e-15
1.245354e-15
1.208332e-15
1.122739e-15
9.308726e-16
8.000000e+00
8.000000e+00
2.176871e+00
5.243162e-01
1.262856e-01
3.041686e-02
7.326137e-03
1.764557e-03
4.250072e-04
1.023663e-04
2.465571e-05
5.938517e-06
1.430338e-06
3.445079e-07
8.297740e-08
1.998575e-08
4.813723e-09
1.159423e-09
2.792562e-10
6.726129e-11
1.620068e-11
3.902333e-12
9.401826e-13
2.267257e-13
5.488416e-14
1.349480e-14
3.525862e-15
1.124768e-15
5.464467e-16
4.071536e-16
3.736020e-16
3.655136e-16
3.635410e-16
3.629888e-16
3.626295e-16
3.619181e-16
3.601163e-16
3.556386e-16
3.449591e-16
3.204000e-16
2.655299e-16
8.000000e+00
8.000000e+00
2.176871e+00
5.243162e-01
1.262856e-01
3.041686e-02
7.326137e-03
1.764557e-03
4.250072e-04
1.023663e-04
2.465571e-05
5.938517e-06
1.430338e-06
3.445079e-07
8.297740e-08
1.998575e-08
4.813722e-09
1.159422e-09
2.792559e-10
6.726103e-11
1.620042e-11
3.902074e-12
9.399235e-13
2.264665e-13
5.462494e-14
1.323556e-14
3.266610e-15
8.655128e-16
2.871904e-16
1.478970e-16
1.143465e-16
1.062633e-16
1.043088e-16
1.038144e-16
1.036273e-16
1.033971e-16
1.028644e-16
1.015635e-16
9.848515e-17
9.144118e-17
7.575118e-17
8.000000e+00
8.000000e+00
2.176871e+00
5.243162e-01
1.262856e-01
3.041686e-02
7.326137e-03
1.764557e-03
4.250072e-04
1.023663e-04
2.465571e-05
5.938517e-06
1.430338e-06
3.445079e-07
8.297740e-08
1.998575e-08
4.813722e-09
1.159422e-09
2.792558e-10
6.726095e-11
1.620034e-11
3.902000e-12
9.398495e-13
2.263925e-13
5.455087e-14
1.316149e-14
3.192539e-15
7.914403e-16
2.131173e-16
7.382376e-17
4.027366e-17
3.219213e-17
3.024326e-17
2.976668e-17
2.963150e-17
2.954424e-17
2.938381e-17
2.900555e-17
2.811870e-17
2.609903e-17
2.161293e-17
8.000000e+00
8.000000e+00
2.176871e+00
5.243162e-01
1.262856e-01
3.041686e-02
7.326137e-03
1.764557e-03
4.250072e-04
1.023663e-04
2.465571e-05
5.938517e-06
1.430338e-06
3.445079e-07
8.297740e-08
1.998575e-08
4.813722e-09
1.159422e-09
2.792558e-10
6.726093e-11
1.620032e-11
3.901979e-12
9.398283e-13
2.263713e-13
5.452972e-14
1.314033e-14
3.171376e-15
7.702769e-16
1.919536e-16
5.266002e-17
1.911002e-17
1.102902e-17
9.081917e-18
8.610765e-18
8.491199e-18
8.446283e-18
8.394807e-18
8.284158e-18
8.028641e-18
7.449693e-18
6.167122e-18
8.000000e+00
8.000000e+00
2.176871e+00
5.243162e-01
1.262856e-01
3.041686e-02
7.326137e-03
1.764557e-03
4.250072e-04
1.023663e-04
2.465571e-05
5.938517e-06
1.430338e-06
3.445079e-07
8.297740e-08
1.998575e-08
4.813722e-09
1.159422e-09
2.792558e-10
6.726093e-11
1.620032e-11
3.901973e-12
9.398223e-13
2.263653e-13
5.452367e-14
1.313428e-14
3.165330e-15
7.642303e-16
1.859069e-16
4.661325e-17
1.306329e-17
4.982447e-18
3.035890e-18
2.566389e-18
2.451496e-18
2.419085e-18
2.399440e-18
2.366314e-18
2.292547e-18
2.126589e-18
1.759925e-18
8.000000e+00
8.000000e+00
2.176871e+00
5.243162e-01
1.262856e-01
3.041686e-02
7.326137e-03
1.764557e-03
4.250072e-04
1.023663e-04
2.465571e-05
5.938517e-06
1.430338e-06
3.445079e-07
8.297740e-08
1.998575e-08
4.813722e-09
1.159422e-09
2.792558e-10
6.726092e-11
1.620031e-11
3.901972e-12
9.398206e-13
2.263636e-13
5.452194e-14
1.313256e-14
3.163602e-15
7.625027e-16
1.841793e-16
4.488561e-17
1.133565e-17
3.254863e-18
1.308474e-18
8.394736e-19
7.259741e-19
6.972469e-19
6.868859e-19
6.761914e-19
6.547142e-19
6.071073e-19
5.022852e-19
8.000000e+00
8.000000e+00
2.176871e+00
5.243162e-01
1.262856e-01
3.041686e-02
7.326137e-03
1.764557e-03
4.250072e-04
1.023663e-04
2.465571e-05
5.938517e-06
1.430338e-06
3.445079e-07
8.297740e-08
1.998575e-08
4.813722e-09
1.159422e-09
2.792558e-10
6.726092e-11
1.620031e-11
3.901971e-12
9.398201e-13
2.263631e-13
5.452145e-14
1.313206e-14
3.163109e-15
7.620091e-16
1.836857e-16
4.439200e-17
1.084204e-17
2.761270e-18
8.149325e-19
3.460829e-19
2.329979e-19
2.053536e-19
1.976958e-19
1.934860e-19
1.870440e-19
1.733442e-19
1.433731e-19
8.000000e+00
8.000000e+00
2.176871e+00
5.243162e-01
1.262856e-01
3.041686e-02
7.326137e-03
1.764557e-03
4.250072e-04
1.023663e-04
2.465571e-05
5.938517e-06
1.430338e-06
3.445079e-07
8.297740e-08
1.998575e-08
4.813722e-09
1.159422e-09
2.792558e-10
6.726092e-11
1.620031e-11
3.901971e-12
9.398199e-13
2.263629e-13
5.452131e-14
1.313192e-14
3.162968e-15
7.618681e-16
1.835446e-16
4.425097e-17
1.070101e-17
2.620244e-18
6.739224e-19
2.051181e-19
9.215602e-20
6.482929e-20
5.795760e-20
5.562056e-20
5.349953e-20
4.951168e-20
4.093659e-20
8.000000e+00
8.000000e+00
2.176871e+00
5.243162e-01
1.262856e-01
3.041686e-02
7.326137e-03
1.764557e-03
4.250072e-04
1.023663e-04
2.465571e-05
5.938517e-06
1.430338e-06
3.445079e-07
8.297740e-08
1.998575e-08
4.813722e-09
1.159422e-09
2.792558e-10
6.726092e-11
1.620031e-11
3.901971e-12
9.398199e-13
2.263629e-13
5.452127e-14
1.313188e-14
3.162927e-15
7.618278e-16
1.835044e-16
4.421068e-17
1.066072e-17
2.579952e-18
6.336343e-19
1.648435e-19
5.191782e-20
2.468408e-20
1.804066e-20
1.624408e-20
1.536427e-20
1.415760e-20
1.169815e-20
8.000000e+00
8.000000e+00
2.035374e+00
5.547912e-01
1.495164e-01
3.992370e-02
1.057877e-02
2.784986e-03
7.291254e-04
1.899761e-04
4.929214e-05
1.274253e-05
3.283324e-06
8.435370e-07
2.161504e-07
5.525607e-08
1.409521e-08
3.588505e-09
9.119659e-10
2.313825e-10
5.861725e-11
1.482906e-11
3.746623e-12
9.454624e-13
2.383211e-13
6.001053e-14
1.509623e-14
3.794134e-15
9.527647e-16
2.390642e-16
5.994308e-17
1.502293e-17
3.766039e-18
9.470303e-19
2.415357e-19
6.507543e-20
2.094071e-20
9.851810e-21
6.937609e-21
5.883624e-21
3.516354e-21
8.000000e+00
8.000000e+00
8.062767e+00
8.125148e+00
8.186756e+00
8.247214e+00
8.306147e+00
8.363192e+00
8.417999e+00
8.470228e+00
8.519558e+00
8.565685e+00
8.608325e+00
8.647214e+00
8.682112e+00
8.712805e+00
8.739104e+00
8.760845e+00
8.777896e+00
8.790151e+00
8.797534e+00
8.800000e+00
8.797534e+00
8.790151e+00
8.777896e+00
8.760845e+00
8.739104e+00
8.712805e+00
8.682112e+00
8.647214e+00
8.608325e+00
8.565685e+00
8.519558e+00
8.470228e+00
8.417999e+00
8.363192e+00
8.306147e+00
8.247214e+00
8.186756e+00
8.125148e+00
8.062767e+00
8.000000e+00
