# vtk DataFile Version 3.0
9 points difference shceme(4-order bound)
ASCII
DATASET STRUCTURED_POINTS
DIMENSIONS 21 21 1
ORIGIN 0.0 0.0 0.0
SPACING 0.05 0.05 1.0
POINT_DATA 441
SCALARS Temperature double 1
LOOKUP_TABLE default
1.000000e+01
1.000000e+01
1.000000e+01
1.000000e+01
1.000000e+01
1.000000e+01
1.000000e+01
1.000000e+01
1.000000e+01
1.000000e+01
1.000000e+01
1.000000e+01
1.000000e+01
1.000000e+01
1.000000e+01
1.000000e+01
1.000000e+01
1.000000e+01
1.000000e+01
1.000000e+01
1.000000e+01
1.000000e+01
1.000214e+01
1.000422e+01
1.000620e+01
1.000803e+01
1.000966e+01
1.001105e+01
1.001217e+01
1.001299e+01
1.001349e+01
1.001366e+01
1.001349e+01
1.001299e+01
1.001217e+01
1.001105e+01
1.000966e+01
1.000803e+01
1.000620e+01
1.000422e+01
1.000214e+01
1.000000e+01
1.000000e+01
1.000433e+01
1.000855e+01
1.001255e+01
1.001625e+01
1.001955e+01
1.002237e+01
1.002464e+01
1.002630e+01
1.002731e+01
1.002765e+01
1.002731e+01
1.002630e+01
1.002464e+01
1.002237e+01
1.001955e+01
1.001625e+01
1.001255e+01
1.000855e+01
1.000433e+01
1.000000e+01
1.000000e+01
1.000662e+01
1.001308e+01
1.001922e+01
1.002488e+01
1.002993e+01
1.003425e+01
1.003772e+01
1.004026e+01
1.004181e+01
1.004233e+01
1.004181e+01
1.004026e+01
1.003772e+01
1.003425e+01
1.002993e+01
1.002488e+01
1.001922e+01
1.001308e+01
1.000662e+01
1.000000e+01
1.000000e+01
1.000908e+01
1.001794e+01
1.002636e+01
1.003412e+01
1.004105e+01
1.004697e+01
1.005173e+01
1.005522e+01
1.005734e+01
1.005806e+01
1.005734e+01
1.005522e+01
1.005173e+01
1.004697e+01
1.004105e+01
1.003412e+01
1.002636e+01
1.001794e+01
1.000908e+01
1.000000e+01
1.000000e+01
1.001177e+01
1.002324e+01
1.003415e+01
1.004421e+01
1.005319e+01
1.006085e+01
1.006702e+01
1.007154e+01
1.007429e+01
1.007522e+01
1.007429e+01
1.007154e+01
1.006702e+01
1.006085e+01
1.005319e+01
1.004421e+01
1.003415e+01
1.002324e+01
1.001177e+01
1.000000e+01
1.000000e+01
1.001474e+01
1.002912e+01
1.004278e+01
1.005539e+01
1.006664e+01
1.007624e+01
1.008397e+01
1.008963e+01
1.009308e+01
1.009424e+01
1.009308e+01
1.008963e+01
1.008397e+01
1.007624e+01
1.006664e+01
1.005539e+01
1.004278e+01
1.002912e+01
1.001474e+01
1.000000e+01
1.000000e+01
1.001808e+01
1.003572e+01
1.005248e+01
1.006794e+01
1.008173e+01
1.009351e+01
1.010299e+01
1.010993e+01
1.011417e+01
1.011559e+01
1.011417e+01
1.010993e+01
1.010299e+01
1.009351e+01
1.008173e+01
1.006794e+01
1.005248e+01
1.003572e+01
1.001808e+01
1.000000e+01
1.000000e+01
1.002187e+01
1.004320e+01
1.006347e+01
1.008217e+01
1.009885e+01
1.011310e+01
1.012456e+01
1.013296e+01
1.013808e+01
1.013980e+01
1.013808e+01
1.013296e+01
1.012456e+01
1.011310e+01
1.009885e+01
1.008217e+01
1.006347e+01
1.004320e+01
1.002187e+01
1.000000e+01
1.000000e+01
1.002620e+01
1.005175e+01
1.007603e+01
1.009843e+01
1.011841e+01
1.013548e+01
1.014921e+01
1.015927e+01
1.016540e+01
1.016746e+01
1.016540e+01
1.015927e+01
1.014921e+01
1.013548e+01
1.011841e+01
1.009843e+01
1.007603e+01
1.005175e+01
1.002620e+01
1.000000e+01
1.000000e+01
1.003117e+01
1.006158e+01
1.009047e+01
1.011713e+01
1.014090e+01
1.016121e+01
1.017755e+01
1.018952e+01
1.019682e+01
1.019927e+01
1.019682e+01
1.018952e+01
1.017755e+01
1.016121e+01
1.014090e+01
1.011713e+01
1.009047e+01
1.006158e+01
1.003117e+01
1.000000e+01
1.000000e+01
1.003692e+01
1.007293e+01
1.010714e+01
1.013872e+01
1.016688e+01
1.019093e+01
1.021028e+01
1.022445e+01
1.023310e+01
1.023600e+01
1.023310e+01
1.022445e+01
1.021028e+01
1.019093e+01
1.016688e+01
1.013872e+01
1.010714e+01
1.007293e+01
1.003692e+01
1.000000e+01
1.000000e+01
1.004358e+01
1.008608e+01
1.012647e+01
1.016374e+01
1.019698e+01
1.022537e+01
1.024821e+01
1.026493e+01
1.027514e+01
1.027857e+01
1.027514e+01
1.026493e+01
1.024821e+01
1.022537e+01
1.019698e+01
1.016374e+01
1.012647e+01
1.008608e+01
1.004358e+01
1.000000e+01
1.000000e+01
1.005131e+01
1.010136e+01
1.014892e+01
1.019281e+01
1.023195e+01
1.026538e+01
1.029227e+01
1.031197e+01
1.032398e+01
1.032802e+01
1.032398e+01
1.031197e+01
1.029227e+01
1.026538e+01
1.023195e+01
1.019281e+01
1.014892e+01
1.010136e+01
1.005131e+01
1.000000e+01
1.000000e+01
1.006032e+01
1.011915e+01
1.017505e+01
1.022664e+01
1.027265e+01
1.031195e+01
1.034356e+01
1.036672e+01
1.038084e+01
1.038559e+01
1.038084e+01
1.036672e+01
1.034356e+01
1.031195e+01
1.027265e+01
1.022664e+01
1.017505e+01
1.011915e+01
1.006032e+01
1.000000e+01
1.000000e+01
1.007082e+01
1.013989e+01
1.020552e+01
1.026608e+01
1.032010e+01
1.036623e+01
1.040335e+01
1.043053e+01
1.044711e+01
1.045269e+01
1.044711e+01
1.043053e+01
1.040335e+01
1.036623e+01
1.032010e+01
1.026608e+01
1.020552e+01
1.013989e+01
1.007082e+01
1.000000e+01
1.000000e+01
1.008306e+01
1.016408e+01
1.024106e+01
1.031210e+01
1.037546e+01
1.042957e+01
1.047311e+01
1.050499e+01
1.052444e+01
1.053098e+01
1.052444e+01
1.050499e+01
1.047311e+01
1.042957e+01
1.037546e+01
1.031210e+01
1.024106e+01
1.016408e+01
1.008306e+01
1.000000e+01
1.000000e+01
1.009736e+01
1.019233e+01
1.028256e+01
1.036584e+01
1.044010e+01
1.050353e+01
1.055456e+01
1.059194e+01
1.061474e+01
1.062240e+01
1.061474e+01
1.059194e+01
1.055456e+01
1.050353e+01
1.044010e+01
1.036584e+01
1.028256e+01
1.019233e+01
1.009736e+01
1.000000e+01
1.000000e+01
1.011407e+01
1.022534e+01
1.033105e+01
1.042862e+01
1.051563e+01
1.058994e+01
1.064973e+01
1.069352e+01
1.072023e+01
1.072921e+01
1.072023e+01
1.069352e+01
1.064973e+01
1.058994e+01
1.051563e+01
1.042862e+01
1.033105e+01
1.022534e+01
1.011407e+01
1.000000e+01
1.000000e+01
1.013360e+01
1.026391e+01
1.038773e+01
1.050200e+01
1.060390e+01
1.069094e+01
1.076096e+01
1.081225e+01
1.084353e+01
1.085405e+01
1.084353e+01
1.081225e+01
1.076096e+01
1.069094e+01
1.060390e+01
1.050200e+01
1.038773e+01
1.026391e+01
1.013360e+01
1.000000e+01
1.000000e+01
1.015643e+01
1.030902e+01
1.045399e+01
1.058779e+01
1.070711e+01
1.080902e+01
1.089101e+01
1.095106e+01
1.098769e+01
1.100000e+01
1.098769e+01
1.095106e+01
1.089101e+01
1.080902e+01
1.070711e+01
1.058779e+01
1.045399e+01
1.030902e+01
1.015643e+01
1.000000e+01
