# vtk DataFile Version 3.0
9 points difference shceme(4-order bound)
ASCII
DATASET STRUCTURED_POINTS
DIMENSIONS 21 21 1
ORIGIN 0.0 0.0 0.0
SPACING 0.05 0.05 1.0
POINT_DATA 441
SCALARS Temperature double 1
LOOKUP_TABLE default
5.000000e+00
5.000000e+00
5.000000e+00
5.000000e+00
5.000000e+00
5.000000e+00
5.000000e+00
5.000000e+00
5.000000e+00
5.000000e+00
5.000000e+00
5.000000e+00
5.000000e+00
5.000000e+00
5.000000e+00
5.000000e+00
5.000000e+00
5.000000e+00
5.000000e+00
5.000000e+00
5.000000e+00
5.000000e+00
1.250000e+00
8.333333e-01
7.692308e-01
7.593688e-01
7.578516e-01
7.576182e-01
7.575823e-01
7.575768e-01
7.575759e-01
7.575758e-01
7.575758e-01
7.575758e-01
7.575758e-01
7.575758e-01
7.575758e-01
7.575758e-01
7.575758e-01
7.575758e-01
7.196970e-01
5.000000e+00
5.000000e+00
8.333333e-01
2.171474e-01
1.384554e-01
1.279595e-01
1.265058e-01
1.262982e-01
1.262679e-01
1.262634e-01
1.262627e-01
1.262626e-01
1.262626e-01
1.262626e-01
1.262626e-01
1.262626e-01
1.262626e-01
1.262626e-01
1.262626e-01
1.253157e-01
1.188649e-01
5.000000e+00
5.000000e+00
7.692308e-01
1.229325e-01
3.476646e-02
2.289662e-02
2.129668e-02
2.107884e-02
2.104872e-02
2.104448e-02
2.104387e-02
2.104379e-02
2.104377e-02
2.104377e-02
2.104377e-02
2.104377e-02
2.104377e-02
2.104377e-02
2.102010e-02
2.076176e-02
1.964608e-02
5.000000e+00
5.000000e+00
7.593688e-01
1.083301e-01
1.795538e-02
5.486779e-03
3.777733e-03
3.544292e-03
3.512384e-03
3.508001e-03
3.507394e-03
3.507309e-03
3.507297e-03
3.507295e-03
3.507295e-03
3.507295e-03
3.507295e-03
3.506703e-03
3.497818e-03
3.442613e-03
3.248963e-03
5.000000e+00
5.000000e+00
7.578516e-01
1.060513e-01
1.524609e-02
2.616614e-03
8.652115e-04
6.232033e-04
5.898660e-04
5.852812e-04
5.846503e-04
5.845632e-04
5.845512e-04
5.845495e-04
5.845492e-04
5.845492e-04
5.845344e-04
5.842516e-04
5.819399e-04
5.711248e-04
5.375543e-04
5.000000e+00
5.000000e+00
7.576182e-01
1.056944e-01
1.481074e-02
2.145518e-03
3.820684e-04
1.369041e-04
1.028891e-04
9.817994e-05
9.752914e-05
9.743927e-05
9.742686e-05
9.742514e-05
9.742490e-05
9.742450e-05
9.741591e-05
9.732861e-05
9.681126e-05
9.478096e-05
8.897859e-05
5.000000e+00
5.000000e+00
7.575823e-01
1.056384e-01
1.474091e-02
2.068463e-03
3.021137e-04
5.602572e-05
2.176859e-05
1.700531e-05
1.634392e-05
1.625222e-05
1.623952e-05
1.623776e-05
1.623751e-05
1.623722e-05
1.623414e-05
1.621195e-05
1.610506e-05
1.573335e-05
1.473388e-05
5.000000e+00
5.000000e+00
7.575768e-01
1.056296e-01
1.472972e-02
2.055894e-03
2.889130e-04
4.259093e-05
8.261728e-06
3.479516e-06
2.813782e-06
2.721186e-06
2.708320e-06
2.706534e-06
2.706279e-06
2.706141e-06
2.705258e-06
2.700201e-06
2.679159e-06
2.612224e-06
2.440641e-06
5.000000e+00
5.000000e+00
7.575759e-01
1.056282e-01
1.472793e-02
2.053848e-03
2.867383e-04
4.036229e-05
6.014163e-06
1.226256e-06
5.590214e-07
4.660733e-07
4.531323e-07
4.513316e-07
4.510779e-07
4.510103e-07
4.507854e-07
4.497091e-07
4.456974e-07
4.337872e-07
4.044210e-07
5.000000e+00
5.000000e+00
7.575758e-01
1.056280e-01
1.472764e-02
2.053516e-03
2.863807e-04
3.999311e-05
5.640441e-06
8.509992e-07
1.833103e-07
9.024220e-08
7.727258e-08
7.546567e-08
7.521290e-08
7.516890e-08
7.511341e-08
7.489432e-08
7.414658e-08
7.204634e-08
6.703418e-08
5.000000e+00
5.000000e+00
7.575758e-01
1.056280e-01
1.472760e-02
2.053462e-03
2.863220e-04
3.993204e-05
5.578351e-06
7.885288e-07
1.207149e-07
2.761029e-08
1.463098e-08
1.282180e-08
1.256933e-08
1.253198e-08
1.251612e-08
1.247254e-08
1.233543e-08
1.196770e-08
1.111431e-08
5.000000e+00
5.000000e+00
7.575758e-01
1.056280e-01
1.472759e-02
2.053453e-03
2.863124e-04
3.992195e-05
5.568044e-06
7.781340e-07
1.102884e-07
1.717351e-08
4.191252e-09
2.381313e-09
2.128909e-09
2.093225e-09
2.086048e-09
2.077148e-09
2.052264e-09
1.988239e-09
1.843252e-09
5.000000e+00
5.000000e+00
7.575758e-01
1.056280e-01
1.472759e-02
2.053452e-03
2.863108e-04
3.992029e-05
5.566335e-06
7.764052e-07
1.085520e-07
1.543455e-08
2.451451e-09
6.412804e-10
3.888825e-10
3.535847e-10
3.482226e-10
3.459948e-10
3.414605e-10
3.303579e-10
3.057729e-10
5.000000e+00
5.000000e+00
7.575758e-01
1.056280e-01
1.472759e-02
2.053452e-03
2.863106e-04
3.992001e-05
5.566052e-06
7.761179e-07
1.082630e-07
1.514484e-08
2.161525e-09
3.512889e-10
9.888876e-11
6.367497e-11
5.867924e-11
5.770948e-11
5.682582e-11
5.489921e-11
5.073926e-11
5.000000e+00
5.000000e+00
7.575758e-01
1.056280e-01
1.472759e-02
2.053452e-03
2.863105e-04
3.991997e-05
5.566005e-06
7.760702e-07
1.082149e-07
1.509659e-08
2.113214e-09
3.029607e-10
5.055904e-11
1.536260e-11
1.043880e-11
9.702454e-12
9.468044e-12
9.125852e-12
8.424928e-12
5.000000e+00
5.000000e+00
7.575758e-01
1.056280e-01
1.472759e-02
2.053452e-03
2.863105e-04
3.991996e-05
5.565997e-06
7.760623e-07
1.082069e-07
1.508855e-08
2.105165e-09
2.949069e-10
4.250468e-11
7.311673e-12
2.401673e-12
1.708084e-12
1.588320e-12
1.518742e-12
1.402741e-12
5.000000e+00
5.000000e+00
7.575758e-01
1.056280e-01
1.472759e-02
2.053452e-03
2.863105e-04
3.991996e-05
5.565996e-06
7.760610e-07
1.082056e-07
1.508721e-08
2.103824e-09
2.935648e-10
4.116242e-11
5.970068e-12
1.062668e-12
3.768250e-13
2.771852e-13
2.543692e-13
2.371504e-13
5.000000e+00
5.000000e+00
7.575758e-01
1.056280e-01
1.472759e-02
2.053452e-03
2.863105e-04
3.991996e-05
5.565996e-06
7.760607e-07
1.082053e-07
1.508699e-08
2.103601e-09
2.933412e-10
4.093874e-11
5.746507e-12
8.395899e-13
1.551378e-13
5.901216e-14
4.419653e-14
4.364041e-14
5.000000e+00
5.000000e+00
7.196970e-01
1.174936e-01
1.902002e-02
3.057788e-03
4.887822e-04
7.775624e-05
1.231929e-05
1.945023e-06
3.061706e-07
4.807033e-08
7.530325e-09
1.177358e-09
1.837994e-10
2.868821e-11
4.510336e-12
7.465767e-13
1.607896e-13
6.829821e-14
1.399233e-14
5.000000e+00
5.000000e+00
5.078217e+00
5.154508e+00
5.226995e+00
5.293893e+00
5.353553e+00
5.404508e+00
5.445503e+00
5.475528e+00
5.493844e+00
5.500000e+00
5.493844e+00
5.475528e+00
5.445503e+00
5.404508e+00
5.353553e+00
5.293893e+00
5.226995e+00
5.154508e+00
5.078217e+00
5.000000e+00
