# vtk DataFile Version 3.0
9 points difference shceme(4-order bound)
ASCII
DATASET STRUCTURED_POINTS
DIMENSIONS 21 21 1
ORIGIN 0.0 0.0 0.0
SPACING 0.05 0.05 1.0
POINT_DATA 441
SCALARS Temperature double 1
LOOKUP_TABLE default
1.000000e+01
1.000000e+01
1.000000e+01
1.000000e+01
1.000000e+01
1.000000e+01
1.000000e+01
1.000000e+01
1.000000e+01
1.000000e+01
1.000000e+01
1.000000e+01
1.000000e+01
1.000000e+01
1.000000e+01
1.000000e+01
1.000000e+01
1.000000e+01
1.000000e+01
1.000000e+01
1.000000e+01
1.000000e+01
1.000214e+01
1.000422e+01
1.000620e+01
1.000803e+01
1.000966e+01
1.001105e+01
1.001217e+01
1.001299e+01
1.001349e+01
1.001366e+01
1.001349e+01
1.001299e+01
1.001217e+01
1.001105e+01
1.000966e+01
1.000803e+01
1.000620e+01
1.000422e+01
1.000214e+01
1.000000e+01
1.000000e+01
1.000433e+01
1.000855e+01
1.001256e+01
1.001626e+01
1.001956e+01
1.002237e+01
1.002464e+01
1.002630e+01
1.002731e+01
1.002765e+01
1.002731e+01
1.002630e+01
1.002464e+01
1.002237e+01
1.001956e+01
1.001626e+01
1.001256e+01
1.000855e+01
1.000433e+01
1.000000e+01
1.000000e+01
1.000662e+01
1.001308e+01
1.001922e+01
1.002488e+01
1.002994e+01
1.003425e+01
1.003772e+01
1.004026e+01
1.004181e+01
1.004233e+01
1.004181e+01
1.004026e+01
1.003772e+01
1.003425e+01
1.002994e+01
1.002488e+01
1.001922e+01
1.001308e+01
1.000662e+01
1.000000e+01
1.000000e+01
1.000908e+01
1.001794e+01
1.002636e+01
1.003413e+01
1.004106e+01
1.004697e+01
1.005173e+01
1.005522e+01
1.005735e+01
1.005806e+01
1.005735e+01
1.005522e+01
1.005173e+01
1.004697e+01
1.004106e+01
1.003413e+01
1.002636e+01
1.001794e+01
1.000908e+01
1.000000e+01
1.000000e+01
1.001177e+01
1.002325e+01
1.003415e+01
1.004422e+01
1.005319e+01
1.006086e+01
1.006702e+01
1.007154e+01
1.007430e+01
1.007522e+01
1.007430e+01
1.007154e+01
1.006702e+01
1.006086e+01
1.005319e+01
1.004422e+01
1.003415e+01
1.002325e+01
1.001177e+01
1.000000e+01
1.000000e+01
1.001474e+01
1.002912e+01
1.004279e+01
1.005540e+01
1.006664e+01
1.007625e+01
1.008397e+01
1.008963e+01
1.009308e+01
1.009424e+01
1.009308e+01
1.008963e+01
1.008397e+01
1.007625e+01
1.006664e+01
1.005540e+01
1.004279e+01
1.002912e+01
1.001474e+01
1.000000e+01
1.000000e+01
1.001808e+01
1.003572e+01
1.005248e+01
1.006795e+01
1.008174e+01
1.009352e+01
1.010300e+01
1.010994e+01
1.011417e+01
1.011560e+01
1.011417e+01
1.010994e+01
1.010300e+01
1.009352e+01
1.008174e+01
1.006795e+01
1.005248e+01
1.003572e+01
1.001808e+01
1.000000e+01
1.000000e+01
1.002187e+01
1.004320e+01
1.006347e+01
1.008218e+01
1.009886e+01
1.011311e+01
1.012457e+01
1.013296e+01
1.013809e+01
1.013981e+01
1.013809e+01
1.013296e+01
1.012457e+01
1.011311e+01
1.009886e+01
1.008218e+01
1.006347e+01
1.004320e+01
1.002187e+01
1.000000e+01
1.000000e+01
1.002620e+01
1.005175e+01
1.007603e+01
1.009844e+01
1.011842e+01
1.013549e+01
1.014922e+01
1.015928e+01
1.016541e+01
1.016747e+01
1.016541e+01
1.015928e+01
1.014922e+01
1.013549e+01
1.011842e+01
1.009844e+01
1.007603e+01
1.005175e+01
1.002620e+01
1.000000e+01
1.000000e+01
1.003118e+01
1.006158e+01
1.009047e+01
1.011713e+01
1.014091e+01
1.016122e+01
1.017756e+01
1.018953e+01
1.019683e+01
1.019928e+01
1.019683e+01
1.018953e+01
1.017756e+01
1.016122e+01
1.014091e+01
1.011713e+01
1.009047e+01
1.006158e+01
1.003118e+01
1.000000e+01
1.000000e+01
1.003692e+01
1.007293e+01
1.010715e+01
1.013873e+01
1.016689e+01
1.019094e+01
1.021029e+01
1.022446e+01
1.023311e+01
1.023601e+01
1.023311e+01
1.022446e+01
1.021029e+01
1.019094e+01
1.016689e+01
1.013873e+01
1.010715e+01
1.007293e+01
1.003692e+01
1.000000e+01
1.000000e+01
1.004358e+01
1.008609e+01
1.012648e+01
1.016375e+01
1.019699e+01
1.022538e+01
1.024822e+01
1.026495e+01
1.027515e+01
1.027858e+01
1.027515e+01
1.026495e+01
1.024822e+01
1.022538e+01
1.019699e+01
1.016375e+01
1.012648e+01
1.008609e+01
1.004358e+01
1.000000e+01
1.000000e+01
1.005132e+01
1.010137e+01
1.014893e+01
1.019282e+01
1.023196e+01
1.026539e+01
1.029229e+01
1.031199e+01
1.032400e+01
1.032804e+01
1.032400e+01
1.031199e+01
1.029229e+01
1.026539e+01
1.023196e+01
1.019282e+01
1.014893e+01
1.010137e+01
1.005132e+01
1.000000e+01
1.000000e+01
1.006033e+01
1.011916e+01
1.017507e+01
1.022666e+01
1.027267e+01
1.031197e+01
1.034358e+01
1.036674e+01
1.038086e+01
1.038561e+01
1.038086e+01
1.036674e+01
1.034358e+01
1.031197e+01
1.027267e+01
1.022666e+01
1.017507e+01
1.011916e+01
1.006033e+01
1.000000e+01
1.000000e+01
1.007082e+01
1.013990e+01
1.020553e+01
1.026610e+01
1.032012e+01
1.036625e+01
1.040337e+01
1.043056e+01
1.044714e+01
1.045271e+01
1.044714e+01
1.043056e+01
1.040337e+01
1.036625e+01
1.032012e+01
1.026610e+01
1.020553e+01
1.013990e+01
1.007082e+01
1.000000e+01
1.000000e+01
1.008307e+01
1.016409e+01
1.024107e+01
1.031212e+01
1.037548e+01
1.042960e+01
1.047313e+01
1.050502e+01
1.052447e+01
1.053101e+01
1.052447e+01
1.050502e+01
1.047313e+01
1.042960e+01
1.037548e+01
1.031212e+01
1.024107e+01
1.016409e+01
1.008307e+01
1.000000e+01
1.000000e+01
1.009737e+01
1.019235e+01
1.028258e+01
1.036586e+01
1.044013e+01
1.050356e+01
1.055459e+01
1.059197e+01
1.061477e+01
1.062243e+01
1.061477e+01
1.059197e+01
1.055459e+01
1.050356e+01
1.044013e+01
1.036586e+01
1.028258e+01
1.019235e+01
1.009737e+01
1.000000e+01
1.000000e+01
1.011408e+01
1.022535e+01
1.033107e+01
1.042864e+01
1.051566e+01
1.058997e+01
1.064976e+01
1.069355e+01
1.072027e+01
1.072925e+01
1.072027e+01
1.069355e+01
1.064976e+01
1.058997e+01
1.051566e+01
1.042864e+01
1.033107e+01
1.022535e+01
1.011408e+01
1.000000e+01
1.000000e+01
1.013361e+01
1.026393e+01
1.038775e+01
1.050202e+01
1.060393e+01
1.069097e+01
1.076100e+01
1.081229e+01
1.084358e+01
1.085409e+01
1.084358e+01
1.081229e+01
1.076100e+01
1.069097e+01
1.060393e+01
1.050202e+01
1.038775e+01
1.026393e+01
1.013361e+01
1.000000e+01
1.000000e+01
1.015643e+01
1.030902e+01
1.045399e+01
1.058779e+01
1.070711e+01
1.080902e+01
1.089101e+01
1.095106e+01
1.098769e+01
1.100000e+01
1.098769e+01
1.095106e+01
1.089101e+01
1.080902e+01
1.070711e+01
1.058779e+01
1.045399e+01
1.030902e+01
1.015643e+01
1.000000e+01
