# vtk DataFile Version 3.0
9 points difference shceme(4-order bound)
ASCII
DATASET STRUCTURED_POINTS
DIMENSIONS 11 11 1
ORIGIN 0.0 0.0 0.0
SPACING 0.1 0.1 1.0
POINT_DATA 121
SCALARS Temperature double 1
LOOKUP_TABLE default
5.000000e+00
5.000000e+00
5.000000e+00
5.000000e+00
5.000000e+00
5.000000e+00
5.000000e+00
5.000000e+00
5.000000e+00
5.000000e+00
5.000000e+00
5.000000e+00
1.250000e+00
8.333333e-01
7.692308e-01
7.593688e-01
7.578516e-01
7.576182e-01
7.575823e-01
7.575768e-01
7.196971e-01
5.000000e+00
5.000000e+00
8.333333e-01
2.171474e-01
1.384554e-01
1.279595e-01
1.265058e-01
1.262982e-01
1.262679e-01
1.253165e-01
1.188662e-01
5.000000e+00
5.000000e+00
7.692308e-01
1.229325e-01
3.476646e-02
2.289662e-02
2.129668e-02
2.107884e-02
2.102504e-02
2.076250e-02
1.964768e-02
5.000000e+00
5.000000e+00
7.593688e-01
1.083301e-01
1.795538e-02
5.486779e-03
3.777733e-03
3.543700e-03
3.502908e-03
3.443359e-03
3.250705e-03
5.000000e+00
5.000000e+00
7.578516e-01
1.060513e-01
1.524609e-02
2.616614e-03
8.651967e-04
6.229057e-04
5.872578e-04
5.719020e-04
5.393618e-04
5.000000e+00
5.000000e+00
7.576182e-01
1.056944e-01
1.481074e-02
2.145518e-03
3.820595e-04
1.368079e-04
1.022768e-04
9.558337e-05
9.080891e-05
5.000000e+00
5.000000e+00
7.575823e-01
1.056384e-01
1.474091e-02
2.068463e-03
3.021104e-04
5.600023e-05
2.163748e-05
1.654923e-05
1.657107e-05
5.000000e+00
5.000000e+00
7.575768e-01
1.056296e-01
1.472972e-02
2.055894e-03
2.889120e-04
4.258492e-05
8.235977e-06
3.433734e-06
4.279796e-06
5.000000e+00
5.000000e+00
7.196971e-01
1.174958e-01
1.902288e-02
3.060935e-03
4.920252e-04
8.102595e-05
1.558833e-05
5.172000e-06
1.181474e-06
5.000000e+00
5.000000e+00
5.154508e+00
5.293893e+00
5.404508e+00
5.475528e+00
5.500000e+00
5.475528e+00
5.404508e+00
5.293893e+00
5.154508e+00
5.000000e+00
