# vtk DataFile Version 3.0
9 points difference shceme(4-order bound)
ASCII
DATASET STRUCTURED_POINTS
DIMENSIONS 11 11 1
ORIGIN 0.0 0.0 0.0
SPACING 0.1 0.1 1.0
POINT_DATA 121
SCALARS Temperature double 1
LOOKUP_TABLE default
1.000000e+01
1.000000e+01
1.000000e+01
1.000000e+01
1.000000e+01
1.000000e+01
1.000000e+01
1.000000e+01
1.000000e+01
1.000000e+01
1.000000e+01
1.000000e+01
1.000857e+01
1.001629e+01
1.002241e+01
1.002635e+01
1.002770e+01
1.002635e+01
1.002241e+01
1.001629e+01
1.000857e+01
1.000000e+01
1.000000e+01
1.001797e+01
1.003418e+01
1.004703e+01
1.005529e+01
1.005813e+01
1.005529e+01
1.004703e+01
1.003418e+01
1.001797e+01
1.000000e+01
1.000000e+01
1.002917e+01
1.005546e+01
1.007633e+01
1.008973e+01
1.009434e+01
1.008973e+01
1.007633e+01
1.005546e+01
1.002917e+01
1.000000e+01
1.000000e+01
1.004327e+01
1.008227e+01
1.011322e+01
1.013309e+01
1.013994e+01
1.013309e+01
1.011322e+01
1.008227e+01
1.004327e+01
1.000000e+01
1.000000e+01
1.006167e+01
1.011726e+01
1.016137e+01
1.018969e+01
1.019945e+01
1.018969e+01
1.016137e+01
1.011726e+01
1.006167e+01
1.000000e+01
1.000000e+01
1.008621e+01
1.016391e+01
1.022558e+01
1.026517e+01
1.027881e+01
1.026517e+01
1.022558e+01
1.016391e+01
1.008621e+01
1.000000e+01
1.000000e+01
1.011932e+01
1.022687e+01
1.031222e+01
1.036703e+01
1.038591e+01
1.036703e+01
1.031222e+01
1.022687e+01
1.011932e+01
1.000000e+01
1.000000e+01
1.016428e+01
1.031239e+01
1.042993e+01
1.050540e+01
1.053140e+01
1.050540e+01
1.042993e+01
1.031239e+01
1.016428e+01
1.000000e+01
1.000000e+01
1.022557e+01
1.042897e+01
1.059041e+01
1.069405e+01
1.072977e+01
1.069405e+01
1.059041e+01
1.042897e+01
1.022557e+01
1.000000e+01
1.000000e+01
1.030902e+01
1.058779e+01
1.080902e+01
1.095106e+01
1.100000e+01
1.095106e+01
1.080902e+01
1.058779e+01
1.030902e+01
1.000000e+01
