# vtk DataFile Version 3.0
9 points difference shceme(4-order bound)
ASCII
DATASET STRUCTURED_POINTS
DIMENSIONS 81 81 1
ORIGIN 0.0 0.0 0.0
SPACING 0.0125 0.0125 1.0
POINT_DATA 6561
SCALARS Temperature double 1
LOOKUP_TABLE default
1.200000e+01
1.200000e+01
1.200000e+01
1.200000e+01
1.200000e+01
1.200000e+01
1.200000e+01
1.200000e+01
1.200000e+01
1.200000e+01
1.200000e+01
1.200000e+01
1.200000e+01
1.200000e+01
1.200000e+01
1.200000e+01
1.200000e+01
1.200000e+01
1.200000e+01
1.200000e+01
1.200000e+01
1.200000e+01
1.200000e+01
1.200000e+01
1.200000e+01
1.200000e+01
1.200000e+01
1.200000e+01
1.200000e+01
1.200000e+01
1.200000e+01
1.200000e+01
1.200000e+01
1.200000e+01
1.200000e+01
1.200000e+01
1.200000e+01
1.200000e+01
1.200000e+01
1.200000e+01
1.200000e+01
1.200000e+01
1.200000e+01
1.200000e+01
1.200000e+01
1.200000e+01
1.200000e+01
1.200000e+01
1.200000e+01
1.200000e+01
1.200000e+01
1.200000e+01
1.200000e+01
1.200000e+01
1.200000e+01
1.200000e+01
1.200000e+01
1.200000e+01
1.200000e+01
1.200000e+01
1.200000e+01
1.200000e+01
1.200000e+01
1.200000e+01
1.200000e+01
1.200000e+01
1.200000e+01
1.200000e+01
1.200000e+01
1.200000e+01
1.200000e+01
1.200000e+01
1.200000e+01
1.200000e+01
1.200000e+01
1.200000e+01
1.200000e+01
1.200000e+01
1.200000e+01
1.200000e+01
1.200000e+01
1.200000e+01
7.200000e+00
6.350769e+00
6.037207e+00
5.921430e+00
5.878682e+00
5.862898e+00
5.857070e+00
5.854918e+00
5.854124e+00
5.853830e+00
5.853722e+00
5.853682e+00
5.853667e+00
5.853662e+00
5.853660e+00
5.853659e+00
5.853659e+00
5.853659e+00
5.853659e+00
5.853659e+00
5.853659e+00
5.853659e+00
5.853659e+00
5.853659e+00
5.853659e+00
5.853659e+00
5.853659e+00
5.853659e+00
5.853659e+00
5.853659e+00
5.853659e+00
5.853659e+00
5.853659e+00
5.853659e+00
5.853659e+00
5.853659e+00
5.853659e+00
5.853659e+00
5.853659e+00
5.853659e+00
5.853659e+00
5.853659e+00
5.853659e+00
5.853659e+00
5.853659e+00
5.853659e+00
5.853659e+00
5.853659e+00
5.853659e+00
5.853659e+00
5.853659e+00
5.853659e+00
5.853659e+00
5.853659e+00
5.853659e+00
5.853659e+00
5.853659e+00
5.853659e+00
5.853659e+00
5.853659e+00
5.853659e+00
5.853659e+00
5.853659e+00
5.853659e+00
5.853659e+00
5.853659e+00
5.853659e+00
5.853659e+00
5.853659e+00
5.853659e+00
5.853659e+00
5.853659e+00
5.853659e+00
5.853659e+00
5.853659e+00
5.853659e+00
5.853659e+00
5.853659e+00
5.356098e+00
1.200000e+01
1.200000e+01
6.350769e+00
3.842602e+00
3.107486e+00
2.881893e+00
2.809598e+00
2.785544e+00
2.777296e+00
2.774403e+00
2.773371e+00
2.772999e+00
2.772864e+00
2.772814e+00
2.772796e+00
2.772790e+00
2.772787e+00
2.772786e+00
2.772786e+00
2.772786e+00
2.772786e+00
2.772786e+00
2.772786e+00
2.772786e+00
2.772786e+00
2.772786e+00
2.772786e+00
2.772786e+00
2.772786e+00
2.772786e+00
2.772786e+00
2.772786e+00
2.772786e+00
2.772786e+00
2.772786e+00
2.772786e+00
2.772786e+00
2.772786e+00
2.772786e+00
2.772786e+00
2.772786e+00
2.772786e+00
2.772786e+00
2.772786e+00
2.772786e+00
2.772786e+00
2.772786e+00
2.772786e+00
2.772786e+00
2.772786e+00
2.772786e+00
2.772786e+00
2.772786e+00
2.772786e+00
2.772786e+00
2.772786e+00
2.772786e+00
2.772786e+00
2.772786e+00
2.772786e+00
2.772786e+00
2.772786e+00
2.772786e+00
2.772786e+00
2.772786e+00
2.772786e+00
2.772786e+00
2.772786e+00
2.772786e+00
2.772786e+00
2.772786e+00
2.772786e+00
2.772786e+00
2.772786e+00
2.772786e+00
2.772786e+00
2.772786e+00
2.772786e+00
2.772786e+00
2.742932e+00
2.407893e+00
1.200000e+01
1.200000e+01
6.037207e+00
2.938649e+00
1.854542e+00
1.491770e+00
1.372374e+00
1.333114e+00
1.320095e+00
1.315720e+00
1.314226e+00
1.313708e+00
1.313526e+00
1.313461e+00
1.313438e+00
1.313430e+00
1.313427e+00
1.313425e+00
1.313425e+00
1.313425e+00
1.313425e+00
1.313425e+00
1.313425e+00
1.313425e+00
1.313425e+00
1.313425e+00
1.313425e+00
1.313425e+00
1.313425e+00
1.313425e+00
1.313425e+00
1.313425e+00
1.313425e+00
1.313425e+00
1.313425e+00
1.313425e+00
1.313425e+00
1.313425e+00
1.313425e+00
1.313425e+00
1.313425e+00
1.313425e+00
1.313425e+00
1.313425e+00
1.313425e+00
1.313425e+00
1.313425e+00
1.313425e+00
1.313425e+00
1.313425e+00
1.313425e+00
1.313425e+00
1.313425e+00
1.313425e+00
1.313425e+00
1.313425e+00
1.313425e+00
1.313425e+00
1.313425e+00
1.313425e+00
1.313425e+00
1.313425e+00
1.313425e+00
1.313425e+00
1.313425e+00
1.313425e+00
1.313425e+00
1.313425e+00
1.313425e+00
1.313425e+00
1.313425e+00
1.313425e+00
1.313425e+00
1.313425e+00
1.313425e+00
1.313425e+00
1.313425e+00
1.313425e+00
1.311634e+00
1.283936e+00
1.093991e+00
1.200000e+01
1.200000e+01
5.921430e+00
2.599924e+00
1.334897e+00
8.720150e-01
7.081465e-01
6.514507e-01
6.321011e-01
6.255363e-01
6.233086e-01
6.225491e-01
6.222882e-01
6.221977e-01
6.221660e-01
6.221548e-01
6.221508e-01
6.221494e-01
6.221489e-01
6.221487e-01
6.221486e-01
6.221486e-01
6.221486e-01
6.221486e-01
6.221486e-01
6.221486e-01
6.221486e-01
6.221486e-01
6.221486e-01
6.221486e-01
6.221486e-01
6.221486e-01
6.221486e-01
6.221486e-01
6.221486e-01
6.221486e-01
6.221486e-01
6.221486e-01
6.221486e-01
6.221486e-01
6.221486e-01
6.221486e-01
6.221486e-01
6.221486e-01
6.221486e-01
6.221486e-01
6.221486e-01
6.221486e-01
6.221486e-01
6.221486e-01
6.221486e-01
6.221486e-01
6.221486e-01
6.221486e-01
6.221486e-01
6.221486e-01
6.221486e-01
6.221486e-01
6.221486e-01
6.221486e-01
6.221486e-01
6.221486e-01
6.221486e-01
6.221486e-01
6.221486e-01
6.221486e-01
6.221486e-01
6.221486e-01
6.221486e-01
6.221486e-01
6.221486e-01
6.221486e-01
6.221486e-01
6.221486e-01
6.221486e-01
6.221486e-01
6.221486e-01
6.220411e-01
6.199236e-01
6.012639e-01
5.012822e-01
1.200000e+01
1.200000e+01
5.878682e+00
2.470245e+00
1.121550e+00
6.010383e-01
4.056123e-01
3.341100e-01
3.085099e-01
2.994957e-01
2.963581e-01
2.952736e-01
2.948996e-01
2.947706e-01
2.947260e-01
2.947104e-01
2.947049e-01
2.947030e-01
2.947023e-01
2.947021e-01
2.947020e-01
2.947020e-01
2.947020e-01
2.947020e-01
2.947020e-01
2.947020e-01
2.947020e-01
2.947020e-01
2.947020e-01
2.947020e-01
2.947020e-01
2.947020e-01
2.947020e-01
2.947020e-01
2.947020e-01
2.947020e-01
2.947020e-01
2.947020e-01
2.947020e-01
2.947020e-01
2.947020e-01
2.947020e-01
2.947020e-01
2.947020e-01
2.947020e-01
2.947020e-01
2.947020e-01
2.947020e-01
2.947020e-01
2.947020e-01
2.947020e-01
2.947020e-01
2.947020e-01
2.947020e-01
2.947020e-01
2.947020e-01
2.947020e-01
2.947020e-01
2.947020e-01
2.947020e-01
2.947020e-01
2.947020e-01
2.947020e-01
2.947020e-01
2.947020e-01
2.947020e-01
2.947020e-01
2.947020e-01
2.947020e-01
2.947020e-01
2.947020e-01
2.947020e-01
2.947020e-01
2.947020e-01
2.947020e-01
2.947020e-01
2.946955e-01
2.945411e-01
2.928698e-01
2.818644e-01
2.312478e-01
1.200000e+01
1.200000e+01
5.862898e+00
2.419968e+00
1.034242e+00
4.840969e-01
2.696391e-01
1.877471e-01
1.571180e-01
1.458794e-01
1.418232e-01
1.403787e-01
1.398694e-01
1.396912e-01
1.396290e-01
1.396073e-01
1.395997e-01
1.395971e-01
1.395962e-01
1.395958e-01
1.395957e-01
1.395957e-01
1.395957e-01
1.395957e-01
1.395957e-01
1.395957e-01
1.395957e-01
1.395957e-01
1.395957e-01
1.395957e-01
1.395957e-01
1.395957e-01
1.395957e-01
1.395957e-01
1.395957e-01
1.395957e-01
1.395957e-01
1.395957e-01
1.395957e-01
1.395957e-01
1.395957e-01
1.395957e-01
1.395957e-01
1.395957e-01
1.395957e-01
1.395957e-01
1.395957e-01
1.395957e-01
1.395957e-01
1.395957e-01
1.395957e-01
1.395957e-01
1.395957e-01
1.395957e-01
1.395957e-01
1.395957e-01
1.395957e-01
1.395957e-01
1.395957e-01
1.395957e-01
1.395957e-01
1.395957e-01
1.395957e-01
1.395957e-01
1.395957e-01
1.395957e-01
1.395957e-01
1.395957e-01
1.395957e-01
1.395957e-01
1.395957e-01
1.395957e-01
1.395957e-01
1.395957e-01
1.395957e-01
1.395953e-01
1.395844e-01
1.394440e-01
1.383397e-01
1.322960e-01
1.072451e-01
1.200000e+01
1.200000e+01
5.857070e+00
2.400318e+00
9.985381e-01
4.340652e-01
2.091997e-01
1.208727e-01
8.673535e-02
7.376400e-02
6.891640e-02
6.713237e-02
6.648463e-02
6.625209e-02
6.616936e-02
6.614012e-02
6.612983e-02
6.612622e-02
6.612495e-02
6.612451e-02
6.612435e-02
6.612429e-02
6.612427e-02
6.612427e-02
6.612426e-02
6.612426e-02
6.612426e-02
6.612426e-02
6.612426e-02
6.612426e-02
6.612426e-02
6.612426e-02
6.612426e-02
6.612426e-02
6.612426e-02
6.612426e-02
6.612426e-02
6.612426e-02
6.612426e-02
6.612426e-02
6.612426e-02
6.612426e-02
6.612426e-02
6.612426e-02
6.612426e-02
6.612426e-02
6.612426e-02
6.612426e-02
6.612426e-02
6.612426e-02
6.612426e-02
6.612426e-02
6.612426e-02
6.612426e-02
6.612426e-02
6.612426e-02
6.612426e-02
6.612426e-02
6.612426e-02
6.612426e-02
6.612426e-02
6.612426e-02
6.612426e-02
6.612426e-02
6.612426e-02
6.612426e-02
6.612426e-02
6.612426e-02
6.612426e-02
6.612426e-02
6.612426e-02
6.612426e-02
6.612426e-02
6.612426e-02
6.612424e-02
6.612349e-02
6.611224e-02
6.600895e-02
6.534807e-02
6.216967e-02
4.994443e-02
1.200000e+01
1.200000e+01
5.854918e+00
2.392593e+00
9.839344e-01
4.127842e-01
1.825724e-01
9.058292e-02
5.423458e-02
4.005877e-02
3.460782e-02
3.254171e-02
3.176939e-02
3.148439e-02
3.138043e-02
3.134288e-02
3.132943e-02
3.132464e-02
3.132295e-02
3.132235e-02
3.132213e-02
3.132206e-02
3.132203e-02
3.132202e-02
3.132202e-02
3.132202e-02
3.132202e-02
3.132202e-02
3.132202e-02
3.132202e-02
3.132202e-02
3.132202e-02
3.132202e-02
3.132202e-02
3.132202e-02
3.132202e-02
3.132202e-02
3.132202e-02
3.132202e-02
3.132202e-02
3.132202e-02
3.132202e-02
3.132202e-02
3.132202e-02
3.132202e-02
3.132202e-02
3.132202e-02
3.132202e-02
3.132202e-02
3.132202e-02
3.132202e-02
3.132202e-02
3.132202e-02
3.132202e-02
3.132202e-02
3.132202e-02
3.132202e-02
3.132202e-02
3.132202e-02
3.132202e-02
3.132202e-02
3.132202e-02
3.132202e-02
3.132202e-02
3.132202e-02
3.132202e-02
3.132202e-02
3.132202e-02
3.132202e-02
3.132202e-02
3.132202e-02
3.132202e-02
3.132202e-02
3.132202e-02
3.132197e-02
3.132110e-02
3.131195e-02
3.124463e-02
3.087297e-02
2.924778e-02
2.333562e-02
1.200000e+01
1.200000e+01
5.854124e+00
2.389543e+00
9.779573e-01
4.037684e-01
1.709238e-01
7.697003e-02
3.932761e-02
2.438327e-02
1.851389e-02
1.623598e-02
1.536285e-02
1.503233e-02
1.490870e-02
1.486297e-02
1.484623e-02
1.484015e-02
1.483796e-02
1.483718e-02
1.483690e-02
1.483680e-02
1.483677e-02
1.483675e-02
1.483675e-02
1.483675e-02
1.483675e-02
1.483675e-02
1.483675e-02
1.483675e-02
1.483675e-02
1.483675e-02
1.483675e-02
1.483675e-02
1.483675e-02
1.483675e-02
1.483675e-02
1.483675e-02
1.483675e-02
1.483675e-02
1.483675e-02
1.483675e-02
1.483675e-02
1.483675e-02
1.483675e-02
1.483675e-02
1.483675e-02
1.483675e-02
1.483675e-02
1.483675e-02
1.483675e-02
1.483675e-02
1.483675e-02
1.483675e-02
1.483675e-02
1.483675e-02
1.483675e-02
1.483675e-02
1.483675e-02
1.483675e-02
1.483675e-02
1.483675e-02
1.483675e-02
1.483675e-02
1.483675e-02
1.483675e-02
1.483675e-02
1.483675e-02
1.483675e-02
1.483675e-02
1.483675e-02
1.483675e-02
1.483675e-02
1.483674e-02
1.483668e-02
1.483590e-02
1.482943e-02
1.478887e-02
1.458839e-02
1.377320e-02
1.093133e-02
1.200000e+01
1.200000e+01
5.853830e+00
2.388334e+00
9.755087e-01
3.999594e-01
1.658563e-01
7.089340e-02
3.253424e-02
1.713069e-02
1.099186e-02
8.567284e-03
7.619332e-03
7.252692e-03
7.112452e-03
7.059398e-03
7.039538e-03
7.032177e-03
7.029473e-03
7.028488e-03
7.028132e-03
7.028004e-03
7.027958e-03
7.027941e-03
7.027935e-03
7.027933e-03
7.027933e-03
7.027932e-03
7.027932e-03
7.027932e-03
7.027932e-03
7.027932e-03
7.027932e-03
7.027932e-03
7.027932e-03
7.027932e-03
7.027932e-03
7.027932e-03
7.027932e-03
7.027932e-03
7.027932e-03
7.027932e-03
7.027932e-03
7.027932e-03
7.027932e-03
7.027932e-03
7.027932e-03
7.027932e-03
7.027932e-03
7.027932e-03
7.027932e-03
7.027932e-03
7.027932e-03
7.027932e-03
7.027932e-03
7.027932e-03
7.027932e-03
7.027932e-03
7.027932e-03
7.027932e-03
7.027932e-03
7.027932e-03
7.027932e-03
7.027932e-03
7.027932e-03
7.027932e-03
7.027932e-03
7.027932e-03
7.027932e-03
7.027932e-03
7.027932e-03
7.027932e-03
7.027932e-03
7.027927e-03
7.027864e-03
7.027270e-03
7.023094e-03
6.999940e-03
6.894922e-03
6.491531e-03
5.131145e-03
1.200000e+01
1.200000e+01
5.853722e+00
2.387854e+00
9.745047e-01
3.983533e-01
1.636615e-01
6.819659e-02
2.945685e-02
1.379258e-02
7.490142e-03
4.970454e-03
3.970747e-03
3.577532e-03
3.424322e-03
3.365212e-03
3.342634e-03
3.334095e-03
3.330896e-03
3.329709e-03
3.329271e-03
3.329111e-03
3.329053e-03
3.329032e-03
3.329025e-03
3.329022e-03
3.329021e-03
3.329021e-03
3.329021e-03
3.329021e-03
3.329021e-03
3.329021e-03
3.329021e-03
3.329021e-03
3.329021e-03
3.329021e-03
3.329021e-03
3.329021e-03
3.329021e-03
3.329021e-03
3.329021e-03
3.329021e-03
3.329021e-03
3.329021e-03
3.329021e-03
3.329021e-03
3.329021e-03
3.329021e-03
3.329021e-03
3.329021e-03
3.329021e-03
3.329021e-03
3.329021e-03
3.329021e-03
3.329021e-03
3.329021e-03
3.329021e-03
3.329021e-03
3.329021e-03
3.329021e-03
3.329021e-03
3.329021e-03
3.329021e-03
3.329021e-03
3.329021e-03
3.329021e-03
3.329021e-03
3.329021e-03
3.329021e-03
3.329021e-03
3.329021e-03
3.329020e-03
3.329020e-03
3.329015e-03
3.328963e-03
3.328553e-03
3.326028e-03
3.313313e-03
3.259465e-03
3.061803e-03
2.412467e-03
1.200000e+01
1.200000e+01
5.853682e+00
2.387662e+00
9.740925e-01
3.976769e-01
1.627142e-01
6.700569e-02
2.807036e-02
1.226392e-02
5.866757e-03
3.288584e-03
2.255119e-03
1.843540e-03
1.680852e-03
1.617073e-03
1.592288e-03
1.582744e-03
1.579102e-03
1.577725e-03
1.577208e-03
1.577016e-03
1.576945e-03
1.576919e-03
1.576910e-03
1.576906e-03
1.576905e-03
1.576905e-03
1.576905e-03
1.576904e-03
1.576904e-03
1.576904e-03
1.576904e-03
1.576904e-03
1.576904e-03
1.576904e-03
1.576904e-03
1.576904e-03
1.576904e-03
1.576904e-03
1.576904e-03
1.576904e-03
1.576904e-03
1.576904e-03
1.576904e-03
1.576904e-03
1.576904e-03
1.576904e-03
1.576904e-03
1.576904e-03
1.576904e-03
1.576904e-03
1.576904e-03
1.576904e-03
1.576904e-03
1.576904e-03
1.576904e-03
1.576904e-03
1.576904e-03
1.576904e-03
1.576904e-03
1.576904e-03
1.576904e-03
1.576904e-03
1.576904e-03
1.576904e-03
1.576904e-03
1.576904e-03
1.576904e-03
1.576904e-03
1.576904e-03
1.576904e-03
1.576904e-03
1.576900e-03
1.576861e-03
1.576599e-03
1.575142e-03
1.568359e-03
1.541185e-03
1.445033e-03
1.135725e-03
1.200000e+01
1.200000e+01
5.853667e+00
2.387586e+00
9.739231e-01
3.973924e-01
1.623065e-01
6.648201e-02
2.744875e-02
1.156727e-02
5.117316e-03
2.504729e-03
1.450291e-03
1.026678e-03
8.574438e-04
7.902723e-04
7.638035e-04
7.534548e-04
7.494417e-04
7.478985e-04
7.473101e-04
7.470875e-04
7.470040e-04
7.469729e-04
7.469614e-04
7.469572e-04
7.469556e-04
7.469551e-04
7.469549e-04
7.469548e-04
7.469548e-04
7.469547e-04
7.469547e-04
7.469547e-04
7.469547e-04
7.469547e-04
7.469547e-04
7.469547e-04
7.469547e-04
7.469547e-04
7.469547e-04
7.469547e-04
7.469547e-04
7.469547e-04
7.469547e-04
7.469547e-04
7.469547e-04
7.469547e-04
7.469547e-04
7.469547e-04
7.469547e-04
7.469547e-04
7.469547e-04
7.469547e-04
7.469547e-04
7.469547e-04
7.469547e-04
7.469547e-04
7.469547e-04
7.469547e-04
7.469547e-04
7.469547e-04
7.469547e-04
7.469547e-04
7.469547e-04
7.469547e-04
7.469547e-04
7.469547e-04
7.469547e-04
7.469547e-04
7.469547e-04
7.469547e-04
7.469543e-04
7.469508e-04
7.469248e-04
7.467659e-04
7.459554e-04
7.424151e-04
7.288674e-04
6.823507e-04
5.352277e-04
1.200000e+01
1.200000e+01
5.853662e+00
2.387555e+00
9.738534e-01
3.972728e-01
1.621315e-01
6.625256e-02
2.717127e-02
1.125121e-02
4.772767e-03
2.140655e-03
1.073711e-03
6.425575e-04
4.690173e-04
3.995043e-04
3.718175e-04
3.608601e-04
3.565536e-04
3.548736e-04
3.542232e-04
3.539734e-04
3.538782e-04
3.538422e-04
3.538287e-04
3.538236e-04
3.538218e-04
3.538211e-04
3.538208e-04
3.538207e-04
3.538207e-04
3.538207e-04
3.538207e-04
3.538207e-04
3.538207e-04
3.538207e-04
3.538207e-04
3.538207e-04
3.538207e-04
3.538207e-04
3.538207e-04
3.538207e-04
3.538207e-04
3.538207e-04
3.538207e-04
3.538207e-04
3.538207e-04
3.538207e-04
3.538207e-04
3.538207e-04
3.538207e-04
3.538207e-04
3.538207e-04
3.538207e-04
3.538207e-04
3.538207e-04
3.538207e-04
3.538207e-04
3.538207e-04
3.538207e-04
3.538207e-04
3.538207e-04
3.538207e-04
3.538207e-04
3.538207e-04
3.538207e-04
3.538207e-04
3.538207e-04
3.538207e-04
3.538207e-04
3.538207e-04
3.538206e-04
3.538203e-04
3.538178e-04
3.538012e-04
3.537089e-04
3.532703e-04
3.514539e-04
3.447631e-04
3.223530e-04
2.524477e-04
1.200000e+01
1.200000e+01
5.853660e+00
2.387542e+00
9.738246e-01
3.972225e-01
1.620565e-01
6.615233e-02
2.704789e-02
1.110843e-02
4.614999e-03
1.972146e-03
8.979985e-04
4.622971e-04
2.860392e-04
2.149805e-04
1.864534e-04
1.750575e-04
1.705307e-04
1.687436e-04
1.680429e-04
1.677700e-04
1.676645e-04
1.676240e-04
1.676086e-04
1.676028e-04
1.676006e-04
1.675997e-04
1.675994e-04
1.675993e-04
1.675993e-04
1.675993e-04
1.675993e-04
1.675993e-04
1.675993e-04
1.675993e-04
1.675993e-04
1.675993e-04
1.675993e-04
1.675993e-04
1.675993e-04
1.675993e-04
1.675993e-04
1.675993e-04
1.675993e-04
1.675993e-04
1.675993e-04
1.675993e-04
1.675993e-04
1.675993e-04
1.675993e-04
1.675993e-04
1.675993e-04
1.675993e-04
1.675993e-04
1.675993e-04
1.675993e-04
1.675993e-04
1.675993e-04
1.675993e-04
1.675993e-04
1.675993e-04
1.675993e-04
1.675993e-04
1.675993e-04
1.675993e-04
1.675993e-04
1.675993e-04
1.675993e-04
1.675993e-04
1.675993e-04
1.675992e-04
1.675990e-04
1.675973e-04
1.675873e-04
1.675354e-04
1.673031e-04
1.663837e-04
1.631036e-04
1.523422e-04
1.191525e-04
1.200000e+01
1.200000e+01
5.853659e+00
2.387537e+00
9.738128e-01
3.972013e-01
1.620244e-01
6.610867e-02
2.699322e-02
1.104417e-02
4.543034e-03
1.894423e-03
8.162477e-04
3.778930e-04
1.999804e-04
1.279402e-04
9.885674e-05
8.715846e-05
8.247347e-05
8.060652e-05
7.986667e-05
7.957524e-05
7.946118e-05
7.941683e-05
7.939971e-05
7.939314e-05
7.939064e-05
7.938969e-05
7.938934e-05
7.938920e-05
7.938915e-05
7.938914e-05
7.938913e-05
7.938913e-05
7.938912e-05
7.938912e-05
7.938912e-05
7.938912e-05
7.938912e-05
7.938912e-05
7.938912e-05
7.938912e-05
7.938912e-05
7.938912e-05
7.938912e-05
7.938912e-05
7.938912e-05
7.938912e-05
7.938912e-05
7.938912e-05
7.938912e-05
7.938912e-05
7.938912e-05
7.938912e-05
7.938912e-05
7.938912e-05
7.938912e-05
7.938912e-05
7.938912e-05
7.938912e-05
7.938912e-05
7.938912e-05
7.938912e-05
7.938912e-05
7.938912e-05
7.938912e-05
7.938912e-05
7.938912e-05
7.938912e-05
7.938912e-05
7.938912e-05
7.938910e-05
7.938894e-05
7.938788e-05
7.938200e-05
7.935359e-05
7.923276e-05
7.877235e-05
7.717379e-05
7.201921e-05
5.627030e-05
1.200000e+01
1.200000e+01
5.853659e+00
2.387535e+00
9.738079e-01
3.971924e-01
1.620106e-01
6.608969e-02
2.696907e-02
1.101535e-02
4.510328e-03
1.858697e-03
7.783258e-04
3.384662e-04
1.595772e-04
8.693439e-05
5.749579e-05
4.559683e-05
4.080277e-05
3.887864e-05
3.810978e-05
3.780408e-05
3.768319e-05
3.763566e-05
3.761709e-05
3.760988e-05
3.760709e-05
3.760603e-05
3.760562e-05
3.760547e-05
3.760541e-05
3.760539e-05
3.760538e-05
3.760538e-05
3.760538e-05
3.760537e-05
3.760537e-05
3.760537e-05
3.760537e-05
3.760537e-05
3.760537e-05
3.760537e-05
3.760537e-05
3.760537e-05
3.760537e-05
3.760537e-05
3.760537e-05
3.760537e-05
3.760537e-05
3.760537e-05
3.760537e-05
3.760537e-05
3.760537e-05
3.760537e-05
3.760537e-05
3.760537e-05
3.760537e-05
3.760537e-05
3.760537e-05
3.760537e-05
3.760537e-05
3.760537e-05
3.760537e-05
3.760537e-05
3.760537e-05
3.760537e-05
3.760537e-05
3.760537e-05
3.760537e-05
3.760537e-05
3.760537e-05
3.760536e-05
3.760525e-05
3.760461e-05
3.760127e-05
3.758605e-05
3.752407e-05
3.729553e-05
3.652013e-05
3.405609e-05
2.658621e-05
1.200000e+01
1.200000e+01
5.853659e+00
2.387535e+00
9.738058e-01
3.971887e-01
1.620048e-01
6.608145e-02
2.695843e-02
1.100247e-02
4.495515e-03
1.842330e-03
7.607872e-04
3.200950e-04
1.406454e-04
6.764352e-05
3.798531e-05
2.595763e-05
2.109102e-05
1.912747e-05
1.833790e-05
1.802165e-05
1.789555e-05
1.784551e-05
1.782575e-05
1.781800e-05
1.781498e-05
1.781380e-05
1.781335e-05
1.781318e-05
1.781311e-05
1.781309e-05
1.781308e-05
1.781307e-05
1.781307e-05
1.781307e-05
1.781307e-05
1.781307e-05
1.781307e-05
1.781307e-05
1.781307e-05
1.781307e-05
1.781307e-05
1.781307e-05
1.781307e-05
1.781307e-05
1.781307e-05
1.781307e-05
1.781307e-05
1.781307e-05
1.781307e-05
1.781307e-05
1.781307e-05
1.781307e-05
1.781307e-05
1.781307e-05
1.781307e-05
1.781307e-05
1.781307e-05
1.781307e-05
1.781307e-05
1.781307e-05
1.781307e-05
1.781307e-05
1.781307e-05
1.781307e-05
1.781307e-05
1.781307e-05
1.781307e-05
1.781307e-05
1.781307e-05
1.781306e-05
1.781299e-05
1.781262e-05
1.781077e-05
1.780276e-05
1.777133e-05
1.765870e-05
1.728402e-05
1.610801e-05
1.256609e-05
1.200000e+01
1.200000e+01
5.853659e+00
2.387534e+00
9.738050e-01
3.971871e-01
1.620023e-01
6.607788e-02
2.695375e-02
1.099673e-02
4.488827e-03
1.834856e-03
7.526998e-04
3.115567e-04
1.317928e-04
5.858256e-05
2.879236e-05
1.668458e-05
1.177125e-05
9.781429e-06
8.977587e-06
8.653825e-06
8.523878e-06
8.471930e-06
8.451255e-06
8.443065e-06
8.439838e-06
8.438574e-06
8.438081e-06
8.437890e-06
8.437816e-06
8.437788e-06
8.437778e-06
8.437774e-06
8.437772e-06
8.437771e-06
8.437771e-06
8.437771e-06
8.437771e-06
8.437771e-06
8.437771e-06
8.437771e-06
8.437771e-06
8.437771e-06
8.437771e-06
8.437771e-06
8.437771e-06
8.437771e-06
8.437771e-06
8.437771e-06
8.437771e-06
8.437771e-06
8.437771e-06
8.437771e-06
8.437771e-06
8.437771e-06
8.437771e-06
8.437771e-06
8.437771e-06
8.437771e-06
8.437771e-06
8.437771e-06
8.437771e-06
8.437771e-06
8.437771e-06
8.437771e-06
8.437771e-06
8.437771e-06
8.437771e-06
8.437771e-06
8.437770e-06
8.437763e-06
8.437722e-06
8.437507e-06
8.436510e-06
8.432351e-06
8.416572e-06
8.361386e-06
8.180899e-06
7.620344e-06
5.941309e-06
1.200000e+01
1.200000e+01
5.853659e+00
2.387534e+00
9.738047e-01
3.971865e-01
1.620012e-01
6.607634e-02
2.695170e-02
1.099418e-02
4.485816e-03
1.831453e-03
7.489814e-04
3.075987e-04
1.276623e-04
5.433388e-05
2.446632e-05
1.231003e-05
7.367468e-06
5.360665e-06
4.547296e-06
4.218357e-06
4.085682e-06
4.032335e-06
4.010961e-06
4.002432e-06
3.999043e-06
3.997703e-06
3.997176e-06
3.996970e-06
3.996889e-06
3.996858e-06
3.996846e-06
3.996842e-06
3.996840e-06
3.996839e-06
3.996839e-06
3.996839e-06
3.996839e-06
3.996839e-06
3.996839e-06
3.996839e-06
3.996839e-06
3.996839e-06
3.996839e-06
3.996839e-06
3.996839e-06
3.996839e-06
3.996839e-06
3.996839e-06
3.996839e-06
3.996839e-06
3.996839e-06
3.996839e-06
3.996839e-06
3.996839e-06
3.996839e-06
3.996839e-06
3.996839e-06
3.996839e-06
3.996839e-06
3.996839e-06
3.996839e-06
3.996839e-06
3.996839e-06
3.996839e-06
3.996839e-06
3.996839e-06
3.996839e-06
3.996839e-06
3.996838e-06
3.996834e-06
3.996810e-06
3.996690e-06
3.996159e-06
3.994027e-06
3.986168e-06
3.959261e-06
3.872542e-06
3.605625e-06
2.809828e-06
1.200000e+01
1.200000e+01
5.853659e+00
2.387534e+00
9.738045e-01
3.971862e-01
1.620007e-01
6.607567e-02
2.695080e-02
1.099305e-02
4.484465e-03
1.829908e-03
7.472765e-04
3.057687e-04
1.257394e-04
5.234530e-05
2.243343e-05
1.024846e-05
5.288064e-06
3.270581e-06
2.451032e-06
2.118632e-06
1.984077e-06
1.929737e-06
1.907854e-06
1.899069e-06
1.895555e-06
1.894155e-06
1.893600e-06
1.893381e-06
1.893294e-06
1.893261e-06
1.893248e-06
1.893243e-06
1.893241e-06
1.893240e-06
1.893240e-06
1.893240e-06
1.893240e-06
1.893239e-06
1.893239e-06
1.893239e-06
1.893239e-06
1.893239e-06
1.893239e-06
1.893239e-06
1.893239e-06
1.893239e-06
1.893239e-06
1.893239e-06
1.893239e-06
1.893239e-06
1.893239e-06
1.893239e-06
1.893239e-06
1.893239e-06
1.893239e-06
1.893239e-06
1.893239e-06
1.893239e-06
1.893239e-06
1.893239e-06
1.893239e-06
1.893239e-06
1.893239e-06
1.893239e-06
1.893239e-06
1.893239e-06
1.893239e-06
1.893239e-06
1.893239e-06
1.893236e-06
1.893222e-06
1.893157e-06
1.892879e-06
1.891797e-06
1.887909e-06
1.874843e-06
1.833266e-06
1.706276e-06
1.329151e-06
1.200000e+01
1.200000e+01
5.853659e+00
2.387534e+00
9.738045e-01
3.971861e-01
1.620005e-01
6.607538e-02
2.695041e-02
1.099254e-02
4.483859e-03
1.829209e-03
7.464970e-04
3.049247e-04
1.248462e-04
5.141634e-05
2.147957e-05
9.278016e-06
4.307001e-06
2.282965e-06
1.459512e-06
1.124861e-06
9.890473e-07
9.340241e-07
9.117790e-07
9.028080e-07
8.992006e-07
8.977547e-07
8.971772e-07
8.969475e-07
8.968566e-07
8.968207e-07
8.968066e-07
8.968011e-07
8.967990e-07
8.967982e-07
8.967978e-07
8.967977e-07
8.967977e-07
8.967977e-07
8.967977e-07
8.967977e-07
8.967977e-07
8.967977e-07
8.967977e-07
8.967977e-07
8.967977e-07
8.967977e-07
8.967977e-07
8.967977e-07
8.967977e-07
8.967977e-07
8.967977e-07
8.967977e-07
8.967977e-07
8.967977e-07
8.967977e-07
8.967977e-07
8.967977e-07
8.967977e-07
8.967977e-07
8.967977e-07
8.967977e-07
8.967977e-07
8.967977e-07
8.967977e-07
8.967977e-07
8.967977e-07
8.967976e-07
8.967976e-07
8.967973e-07
8.967958e-07
8.967880e-07
8.967529e-07
8.966089e-07
8.960647e-07
8.941521e-07
8.878294e-07
8.679300e-07
8.075544e-07
6.288550e-07
1.200000e+01
1.200000e+01
5.853659e+00
2.387534e+00
9.738044e-01
3.971860e-01
1.620005e-01
6.607526e-02
2.695024e-02
1.099232e-02
4.483589e-03
1.828893e-03
7.461416e-04
3.045365e-04
1.244323e-04
5.098323e-05
2.103273e-05
8.821774e-06
3.844565e-06
1.816598e-06
9.907360e-07
6.546569e-07
5.180221e-07
4.625407e-07
4.400467e-07
4.309439e-07
4.272684e-07
4.257882e-07
4.251938e-07
4.249560e-07
4.248611e-07
4.248234e-07
4.248085e-07
4.248027e-07
4.248004e-07
4.247995e-07
4.247991e-07
4.247990e-07
4.247989e-07
4.247989e-07
4.247989e-07
4.247989e-07
4.247989e-07
4.247989e-07
4.247989e-07
4.247989e-07
4.247989e-07
4.247989e-07
4.247989e-07
4.247989e-07
4.247989e-07
4.247989e-07
4.247989e-07
4.247989e-07
4.247989e-07
4.247989e-07
4.247989e-07
4.247989e-07
4.247989e-07
4.247989e-07
4.247989e-07
4.247989e-07
4.247989e-07
4.247989e-07
4.247989e-07
4.247989e-07
4.247989e-07
4.247989e-07
4.247989e-07
4.247989e-07
4.247987e-07
4.247978e-07
4.247935e-07
4.247749e-07
4.247012e-07
4.244295e-07
4.234932e-07
4.204424e-07
4.109324e-07
3.822439e-07
2.975747e-07
1.200000e+01
1.200000e+01
5.853659e+00
2.387534e+00
9.738044e-01
3.971860e-01
1.620004e-01
6.607521e-02
2.695016e-02
1.099223e-02
4.483469e-03
1.828751e-03
7.459799e-04
3.043584e-04
1.242409e-04
5.078170e-05
2.082376e-05
8.607567e-06
3.626814e-06
1.596537e-06
7.692208e-07
4.322561e-07
2.950986e-07
2.393176e-07
2.166565e-07
2.074630e-07
2.037395e-07
2.022344e-07
2.016274e-07
2.013833e-07
2.012854e-07
2.012463e-07
2.012307e-07
2.012245e-07
2.012221e-07
2.012211e-07
2.012208e-07
2.012206e-07
2.012206e-07
2.012205e-07
2.012205e-07
2.012205e-07
2.012205e-07
2.012205e-07
2.012205e-07
2.012205e-07
2.012205e-07
2.012205e-07
2.012205e-07
2.012205e-07
2.012205e-07
2.012205e-07
2.012205e-07
2.012205e-07
2.012205e-07
2.012205e-07
2.012205e-07
2.012205e-07
2.012205e-07
2.012205e-07
2.012205e-07
2.012205e-07
2.012205e-07
2.012205e-07
2.012205e-07
2.012205e-07
2.012205e-07
2.012205e-07
2.012205e-07
2.012205e-07
2.012204e-07
2.012199e-07
2.012176e-07
2.012079e-07
2.011704e-07
2.010356e-07
2.005792e-07
1.991107e-07
1.945715e-07
1.809461e-07
1.408316e-07
1.200000e+01
1.200000e+01
5.853659e+00
2.387534e+00
9.738044e-01
3.971860e-01
1.620004e-01
6.607518e-02
2.695013e-02
1.099218e-02
4.483415e-03
1.828687e-03
7.459065e-04
3.042768e-04
1.241527e-04
5.068813e-05
2.072621e-05
8.507142e-06
3.524396e-06
1.492786e-06
6.646092e-07
3.271068e-07
1.896237e-07
1.336512e-07
1.108807e-07
1.016262e-07
9.786961e-08
9.634697e-08
9.573092e-08
9.548218e-08
9.538200e-08
9.534176e-08
9.532565e-08
9.531921e-08
9.531666e-08
9.531564e-08
9.531524e-08
9.531509e-08
9.531503e-08
9.531500e-08
9.531499e-08
9.531499e-08
9.531499e-08
9.531499e-08
9.531499e-08
9.531499e-08
9.531499e-08
9.531499e-08
9.531499e-08
9.531499e-08
9.531499e-08
9.531499e-08
9.531499e-08
9.531499e-08
9.531499e-08
9.531499e-08
9.531499e-08
9.531499e-08
9.531499e-08
9.531499e-08
9.531499e-08
9.531499e-08
9.531499e-08
9.531499e-08
9.531499e-08
9.531499e-08
9.531499e-08
9.531499e-08
9.531498e-08
9.531497e-08
9.531491e-08
9.531463e-08
9.531340e-08
9.530839e-08
9.528953e-08
9.522302e-08
9.500133e-08
9.429594e-08
9.213160e-08
8.566285e-08
6.665834e-08
1.200000e+01
1.200000e+01
5.853659e+00
2.387534e+00
9.738044e-01
3.971860e-01
1.620004e-01
6.607517e-02
2.695011e-02
1.099216e-02
4.483391e-03
1.828658e-03
7.458733e-04
3.042396e-04
1.241120e-04
5.064477e-05
2.068075e-05
8.460131e-06
3.476282e-06
1.443917e-06
6.152398e-07
2.774172e-07
1.397353e-07
8.364303e-08
6.080234e-08
5.150788e-08
4.772899e-08
4.619426e-08
4.557179e-08
4.531973e-08
4.521785e-08
4.517677e-08
4.516024e-08
4.515361e-08
4.515095e-08
4.514990e-08
4.514948e-08
4.514931e-08
4.514925e-08
4.514922e-08
4.514921e-08
4.514921e-08
4.514920e-08
4.514920e-08
4.514920e-08
4.514920e-08
4.514920e-08
4.514920e-08
4.514920e-08
4.514920e-08
4.514920e-08
4.514920e-08
4.514920e-08
4.514920e-08
4.514920e-08
4.514920e-08
4.514920e-08
4.514920e-08
4.514920e-08
4.514920e-08
4.514920e-08
4.514920e-08
4.514920e-08
4.514920e-08
4.514920e-08
4.514920e-08
4.514920e-08
4.514920e-08
4.514920e-08
4.514920e-08
4.514916e-08
4.514901e-08
4.514836e-08
4.514580e-08
4.513636e-08
4.510370e-08
4.499634e-08
4.465812e-08
4.362706e-08
4.055697e-08
3.155381e-08
1.200000e+01
1.200000e+01
5.853659e+00
2.387534e+00
9.738044e-01
3.971860e-01
1.620004e-01
6.607517e-02
2.695011e-02
1.099216e-02
4.483381e-03
1.828645e-03
7.458583e-04
3.042226e-04
1.240934e-04
5.062472e-05
2.065961e-05
8.438159e-06
3.453709e-06
1.420921e-06
5.919587e-07
2.539487e-07
1.161478e-07
5.998205e-08
3.709731e-08
2.777712e-08
2.398360e-08
2.244073e-08
2.181385e-08
2.155944e-08
2.145634e-08
2.141463e-08
2.139779e-08
2.139101e-08
2.138828e-08
2.138719e-08
2.138675e-08
2.138658e-08
2.138651e-08
2.138648e-08
2.138647e-08
2.138647e-08
2.138647e-08
2.138647e-08
2.138647e-08
2.138647e-08
2.138647e-08
2.138647e-08
2.138647e-08
2.138647e-08
2.138647e-08
2.138647e-08
2.138647e-08
2.138647e-08
2.138647e-08
2.138647e-08
2.138647e-08
2.138647e-08
2.138647e-08
2.138647e-08
2.138647e-08
2.138647e-08
2.138647e-08
2.138647e-08
2.138647e-08
2.138647e-08
2.138646e-08
2.138646e-08
2.138646e-08
2.138646e-08
2.138644e-08
2.138636e-08
2.138602e-08
2.138472e-08
2.138003e-08
2.136406e-08
2.131221e-08
2.115028e-08
2.065947e-08
1.920280e-08
1.493777e-08
1.200000e+01
1.200000e+01
5.853659e+00
2.387534e+00
9.738044e-01
3.971860e-01
1.620004e-01
6.607517e-02
2.695011e-02
1.099215e-02
4.483376e-03
1.828639e-03
7.458515e-04
3.042149e-04
1.240848e-04
5.061547e-05
2.064979e-05
8.427907e-06
3.443133e-06
1.410113e-06
5.809894e-07
2.428715e-07