# vtk DataFile Version 3.0
steady_diffusion_2D
ASCII
DATASET STRUCTURED_POINTS
DIMENSIONS 80 80 1
ORIGIN 0.0 0.0 0.0
SPACING 0.0125 0.0125 1.0
POINT_DATA 6400
SCALARS Temperature double 1
LOOKUP_TABLE default
9.999899e+000
9.999696e+000
9.999494e+000
9.999293e+000
9.999092e+000
9.998894e+000
9.998696e+000
9.998501e+000
9.998309e+000
9.998118e+000
9.997931e+000
9.997747e+000
9.997566e+000
9.997389e+000
9.997217e+000
9.997048e+000
9.996884e+000
9.996725e+000
9.996571e+000
9.996422e+000
9.996278e+000
9.996141e+000
9.996009e+000
9.995884e+000
9.995765e+000
9.995652e+000
9.995546e+000
9.995447e+000
9.995355e+000
9.995270e+000
9.995192e+000
9.995122e+000
9.995060e+000
9.995005e+000
9.994957e+000
9.994918e+000
9.994886e+000
9.994862e+000
9.994846e+000
9.994838e+000
9.994838e+000
9.994846e+000
9.994862e+000
9.994886e+000
9.994918e+000
9.994957e+000
9.995005e+000
9.995060e+000
9.995122e+000
9.995192e+000
9.995270e+000
9.995355e+000
9.995447e+000
9.995546e+000
9.995652e+000
9.995765e+000
9.995884e+000
9.996009e+000
9.996141e+000
9.996278e+000
9.996422e+000
9.996571e+000
9.996725e+000
9.996884e+000
9.997048e+000
9.997217e+000
9.997389e+000
9.997566e+000
9.997747e+000
9.997931e+000
9.998118e+000
9.998309e+000
9.998501e+000
9.998696e+000
9.998894e+000
9.999092e+000
9.999293e+000
9.999494e+000
9.999696e+000
9.999899e+000
9.999696e+000
9.999089e+000
9.998484e+000
9.997880e+000
9.997280e+000
9.996685e+000
9.996094e+000
9.995509e+000
9.994932e+000
9.994362e+000
9.993801e+000
9.993249e+000
9.992708e+000
9.992178e+000
9.991660e+000
9.991155e+000
9.990663e+000
9.990186e+000
9.989724e+000
9.989278e+000
9.988849e+000
9.988436e+000
9.988042e+000
9.987666e+000
9.987309e+000
9.986971e+000
9.986654e+000
9.986357e+000
9.986081e+000
9.985827e+000
9.985595e+000
9.985384e+000
9.985197e+000
9.985032e+000
9.984890e+000
9.984771e+000
9.984676e+000
9.984605e+000
9.984557e+000
9.984534e+000
9.984534e+000
9.984557e+000
9.984605e+000
9.984676e+000
9.984771e+000
9.984890e+000
9.985032e+000
9.985197e+000
9.985384e+000
9.985595e+000
9.985827e+000
9.986081e+000
9.986357e+000
9.986654e+000
9.986971e+000
9.987309e+000
9.987666e+000
9.988042e+000
9.988436e+000
9.988849e+000
9.989278e+000
9.989724e+000
9.990186e+000
9.990663e+000
9.991155e+000
9.991660e+000
9.992178e+000
9.992708e+000
9.993249e+000
9.993801e+000
9.994362e+000
9.994932e+000
9.995509e+000
9.996094e+000
9.996685e+000
9.997280e+000
9.997880e+000
9.998484e+000
9.999089e+000
9.999696e+000
9.999494e+000
9.998485e+000
9.997477e+000
9.996474e+000
9.995475e+000
9.994484e+000
9.993502e+000
9.992529e+000
9.991568e+000
9.990620e+000
9.989686e+000
9.988768e+000
9.987868e+000
9.986986e+000
9.986124e+000
9.985284e+000
9.984466e+000
9.983673e+000
9.982904e+000
9.982162e+000
9.981448e+000
9.980762e+000
9.980105e+000
9.979480e+000
9.978886e+000
9.978324e+000
9.977796e+000
9.977302e+000
9.976843e+000
9.976420e+000
9.976034e+000
9.975684e+000
9.975372e+000
9.975097e+000
9.974861e+000
9.974664e+000
9.974506e+000
9.974387e+000
9.974308e+000
9.974268e+000
9.974268e+000
9.974308e+000
9.974387e+000
9.974506e+000
9.974664e+000
9.974861e+000
9.975097e+000
9.975372e+000
9.975684e+000
9.976034e+000
9.976420e+000
9.976843e+000
9.977302e+000
9.977796e+000
9.978324e+000
9.978886e+000
9.979480e+000
9.980105e+000
9.980762e+000
9.981448e+000
9.982162e+000
9.982904e+000
9.983673e+000
9.984466e+000
9.985284e+000
9.986124e+000
9.986986e+000
9.987868e+000
9.988768e+000
9.989686e+000
9.990620e+000
9.991568e+000
9.992529e+000
9.993502e+000
9.994484e+000
9.995475e+000
9.996474e+000
9.997477e+000
9.998485e+000
9.999494e+000
9.999294e+000
9.997884e+000
9.996477e+000
9.995076e+000
9.993682e+000
9.992298e+000
9.990926e+000
9.989567e+000
9.988225e+000
9.986901e+000
9.985598e+000
9.984316e+000
9.983059e+000
9.981828e+000
9.980624e+000
9.979451e+000
9.978309e+000
9.977201e+000
9.976128e+000
9.975092e+000
9.974094e+000
9.973136e+000
9.972220e+000
9.971346e+000
9.970516e+000
9.969732e+000
9.968995e+000
9.968306e+000
9.967665e+000
9.967074e+000
9.966534e+000
9.966046e+000
9.965610e+000
9.965226e+000
9.964897e+000
9.964622e+000
9.964401e+000
9.964235e+000
9.964124e+000
9.964069e+000
9.964069e+000
9.964124e+000
9.964235e+000
9.964401e+000
9.964622e+000
9.964897e+000
9.965226e+000
9.965610e+000
9.966046e+000
9.966534e+000
9.967074e+000
9.967665e+000
9.968306e+000
9.968995e+000
9.969732e+000
9.970516e+000
9.971346e+000
9.972220e+000
9.973136e+000
9.974094e+000
9.975092e+000
9.976128e+000
9.977201e+000
9.978309e+000
9.979451e+000
9.980624e+000
9.981828e+000
9.983059e+000
9.984316e+000
9.985598e+000
9.986901e+000
9.988225e+000
9.989567e+000
9.990926e+000
9.992298e+000
9.993682e+000
9.995076e+000
9.996477e+000
9.997884e+000
9.999294e+000
9.999095e+000
9.997289e+000
9.995486e+000
9.993691e+000
9.991905e+000
9.990131e+000
9.988373e+000
9.986633e+000
9.984913e+000
9.983217e+000
9.981546e+000
9.979904e+000
9.978293e+000
9.976716e+000
9.975174e+000
9.973671e+000
9.972208e+000
9.970788e+000
9.969413e+000
9.968085e+000
9.966807e+000
9.965579e+000
9.964405e+000
9.963286e+000
9.962223e+000
9.961218e+000
9.960274e+000
9.959390e+000
9.958569e+000
9.957812e+000
9.957120e+000
9.956494e+000
9.955936e+000
9.955445e+000
9.955023e+000
9.954670e+000
9.954387e+000
9.954175e+000
9.954033e+000
9.953962e+000
9.953962e+000
9.954033e+000
9.954175e+000
9.954387e+000
9.954670e+000
9.955023e+000
9.955445e+000
9.955936e+000
9.956494e+000
9.957120e+000
9.957812e+000
9.958569e+000
9.959390e+000
9.960274e+000
9.961218e+000
9.962223e+000
9.963286e+000
9.964405e+000
9.965579e+000
9.966807e+000
9.968085e+000
9.969413e+000
9.970788e+000
9.972208e+000
9.973671e+000
9.975174e+000
9.976716e+000
9.978293e+000
9.979904e+000
9.981546e+000
9.983217e+000
9.984913e+000
9.986633e+000
9.988373e+000
9.990131e+000
9.991905e+000
9.993691e+000
9.995486e+000
9.997289e+000
9.999095e+000
9.998899e+000
9.996700e+000
9.994507e+000
9.992322e+000
9.990148e+000
9.987990e+000
9.985851e+000
9.983733e+000
9.981640e+000
9.979576e+000
9.977543e+000
9.975544e+000
9.973584e+000
9.971664e+000
9.969788e+000
9.967958e+000
9.966178e+000
9.964450e+000
9.962777e+000
9.961161e+000
9.959605e+000
9.958111e+000
9.956682e+000
9.955320e+000
9.954026e+000
9.952804e+000
9.951654e+000
9.950579e+000
9.949580e+000
9.948659e+000
9.947817e+000
9.947055e+000
9.946375e+000
9.945778e+000
9.945264e+000
9.944835e+000
9.944491e+000
9.944232e+000
9.944060e+000
9.943973e+000
9.943973e+000
9.944060e+000
9.944232e+000
9.944491e+000
9.944835e+000
9.945264e+000
9.945778e+000
9.946375e+000
9.947055e+000
9.947817e+000
9.948659e+000
9.949580e+000
9.950579e+000
9.951654e+000
9.952804e+000
9.954026e+000
9.955320e+000
9.956682e+000
9.958111e+000
9.959605e+000
9.961161e+000
9.962777e+000
9.964450e+000
9.966178e+000
9.967958e+000
9.969788e+000
9.971664e+000
9.973584e+000
9.975544e+000
9.977543e+000
9.979576e+000
9.981640e+000
9.983733e+000
9.985851e+000
9.987990e+000
9.990148e+000
9.992322e+000
9.994507e+000
9.996700e+000
9.998899e+000
9.998706e+000
9.996121e+000
9.993542e+000
9.990972e+000
9.988417e+000
9.985880e+000
9.983364e+000
9.980874e+000
9.978414e+000
9.975987e+000
9.973597e+000
9.971247e+000
9.968942e+000
9.966685e+000
9.964479e+000
9.962328e+000
9.960235e+000
9.958203e+000
9.956236e+000
9.954337e+000
9.952507e+000
9.950751e+000
9.949071e+000
9.947469e+000
9.945949e+000
9.944511e+000
9.943160e+000
9.941896e+000
9.940721e+000
9.939638e+000
9.938648e+000
9.937753e+000
9.936953e+000
9.936251e+000
9.935647e+000
9.935142e+000
9.934738e+000
9.934433e+000
9.934230e+000
9.934129e+000
9.934129e+000
9.934230e+000
9.934433e+000
9.934738e+000
9.935142e+000
9.935647e+000
9.936251e+000
9.936953e+000
9.937753e+000
9.938648e+000
9.939638e+000
9.940721e+000
9.941896e+000
9.943160e+000
9.944511e+000
9.945949e+000
9.947469e+000
9.949071e+000
9.950751e+000
9.952507e+000
9.954337e+000
9.956236e+000
9.958203e+000
9.960235e+000
9.962328e+000
9.964479e+000
9.966685e+000
9.968942e+000
9.971247e+000
9.973597e+000
9.975987e+000
9.978414e+000
9.980874e+000
9.983364e+000
9.985880e+000
9.988417e+000
9.990972e+000
9.993542e+000
9.996121e+000
9.998706e+000
9.998516e+000
9.995551e+000
9.992593e+000
9.989647e+000
9.986716e+000
9.983806e+000
9.980921e+000
9.978066e+000
9.975244e+000
9.972460e+000
9.969719e+000
9.967025e+000
9.964381e+000
9.961792e+000
9.959263e+000
9.956796e+000
9.954395e+000
9.952065e+000
9.949809e+000
9.947630e+000
9.945532e+000
9.943518e+000
9.941591e+000
9.939755e+000
9.938011e+000
9.936362e+000
9.934812e+000
9.933362e+000
9.932015e+000
9.930773e+000
9.929638e+000
9.928611e+000
9.927694e+000
9.926889e+000
9.926196e+000
9.925617e+000
9.925153e+000
9.924804e+000
9.924572e+000
9.924455e+000
9.924455e+000
9.924572e+000
9.924804e+000
9.925153e+000
9.925617e+000
9.926196e+000
9.926889e+000
9.927694e+000
9.928611e+000
9.929638e+000
9.930773e+000
9.932015e+000
9.933362e+000
9.934812e+000
9.936362e+000
9.938011e+000
9.939755e+000
9.941591e+000
9.943518e+000
9.945532e+000
9.947630e+000
9.949809e+000
9.952065e+000
9.954395e+000
9.956796e+000
9.959263e+000
9.961792e+000
9.964381e+000
9.967025e+000
9.969719e+000
9.972460e+000
9.975244e+000
9.978066e+000
9.980921e+000
9.983806e+000
9.986716e+000
9.989647e+000
9.992593e+000
9.995551e+000
9.998516e+000
9.998330e+000
9.994993e+000
9.991664e+000
9.988348e+000
9.985050e+000
9.981775e+000
9.978528e+000
9.975314e+000
9.972138e+000
9.969005e+000
9.965920e+000
9.962888e+000
9.959912e+000
9.956999e+000
9.954152e+000
9.951375e+000
9.948674e+000
9.946051e+000
9.943512e+000
9.941060e+000
9.938699e+000
9.936432e+000
9.934264e+000
9.932196e+000
9.930234e+000
9.928379e+000
9.926634e+000
9.925002e+000
9.923486e+000
9.922088e+000
9.920810e+000
9.919655e+000
9.918623e+000
9.917716e+000
9.916937e+000
9.916285e+000
9.915763e+000
9.915371e+000
9.915109e+000
9.914977e+000
9.914977e+000
9.915109e+000
9.915371e+000
9.915763e+000
9.916285e+000
9.916937e+000
9.917716e+000
9.918623e+000
9.919655e+000
9.920810e+000
9.922088e+000
9.923486e+000
9.925002e+000
9.926634e+000
9.928379e+000
9.930234e+000
9.932196e+000
9.934264e+000
9.936432e+000
9.938699e+000
9.941060e+000
9.943512e+000
9.946051e+000
9.948674e+000
9.951375e+000
9.954152e+000
9.956999e+000
9.959912e+000
9.962888e+000
9.965920e+000
9.969005e+000
9.972138e+000
9.975314e+000
9.978528e+000
9.981775e+000
9.985050e+000
9.988348e+000
9.991664e+000
9.994993e+000
9.998330e+000
9.998148e+000
9.994448e+000
9.990756e+000
9.987079e+000
9.983422e+000
9.979791e+000
9.976190e+000
9.972626e+000
9.969105e+000
9.965631e+000
9.962210e+000
9.958848e+000
9.955548e+000
9.952318e+000
9.949161e+000
9.946082e+000
9.943086e+000
9.940179e+000
9.937363e+000
9.934644e+000
9.932026e+000
9.929512e+000
9.927108e+000
9.924815e+000
9.922639e+000
9.920582e+000
9.918647e+000
9.916838e+000
9.915157e+000
9.913607e+000
9.912190e+000
9.910908e+000
9.909764e+000
9.908759e+000
9.907894e+000
9.907172e+000
9.906593e+000
9.906158e+000
9.905867e+000
9.905722e+000
9.905722e+000
9.905867e+000
9.906158e+000
9.906593e+000
9.907172e+000
9.907894e+000
9.908759e+000
9.909764e+000
9.910908e+000
9.912190e+000
9.913607e+000
9.915157e+000
9.916838e+000
9.918647e+000
9.920582e+000
9.922639e+000
9.924815e+000
9.927108e+000
9.929512e+000
9.932026e+000
9.934644e+000
9.937363e+000
9.940179e+000
9.943086e+000
9.946082e+000
9.949161e+000
9.952318e+000
9.955548e+000
9.958848e+000
9.962210e+000
9.965631e+000
9.969105e+000
9.972626e+000
9.976190e+000
9.979791e+000
9.983422e+000
9.987079e+000
9.990756e+000
9.994448e+000
9.998148e+000
9.997971e+000
9.993917e+000
9.989873e+000
9.985845e+000
9.981838e+000
9.977860e+000
9.973915e+000
9.970011e+000
9.966153e+000
9.962347e+000
9.958599e+000
9.954915e+000
9.951301e+000
9.947762e+000
9.944303e+000
9.940930e+000
9.937648e+000
9.934462e+000
9.931378e+000
9.928399e+000
9.925531e+000
9.922777e+000
9.920142e+000
9.917631e+000
9.915247e+000
9.912993e+000
9.910874e+000
9.908891e+000
9.907050e+000
9.905351e+000
9.903799e+000
9.902395e+000
9.901142e+000
9.900040e+000
9.899093e+000
9.898302e+000
9.897667e+000
9.897191e+000
9.896872e+000
9.896713e+000
9.896713e+000
9.896872e+000
9.897191e+000
9.897667e+000
9.898302e+000
9.899093e+000
9.900040e+000
9.901142e+000
9.902395e+000
9.903799e+000
9.905351e+000
9.907050e+000
9.908891e+000
9.910874e+000
9.912993e+000
9.915247e+000
9.917631e+000
9.920142e+000
9.922777e+000
9.925531e+000
9.928399e+000
9.931378e+000
9.934462e+000
9.937648e+000
9.940930e+000
9.944303e+000
9.947762e+000
9.951301e+000
9.954915e+000
9.958599e+000
9.962347e+000
9.966153e+000
9.970011e+000
9.973915e+000
9.977860e+000
9.981838e+000
9.985845e+000
9.989873e+000
9.993917e+000
9.997971e+000
9.997799e+000
9.993403e+000
9.989017e+000
9.984647e+000
9.980302e+000
9.975987e+000
9.971709e+000
9.967474e+000
9.963290e+000
9.959162e+000
9.955097e+000
9.951102e+000
9.947182e+000
9.943343e+000
9.939592e+000
9.935934e+000
9.932374e+000
9.928919e+000
9.925574e+000
9.922343e+000
9.919232e+000
9.916245e+000
9.913388e+000
9.910664e+000
9.908078e+000
9.905634e+000
9.903335e+000
9.901185e+000
9.899188e+000
9.897346e+000
9.895662e+000
9.894140e+000
9.892780e+000
9.891586e+000
9.890559e+000
9.889700e+000
9.889012e+000
9.888495e+000
9.888150e+000
9.887977e+000
9.887977e+000
9.888150e+000
9.888495e+000
9.889012e+000
9.889700e+000
9.890559e+000
9.891586e+000
9.892780e+000
9.894140e+000
9.895662e+000
9.897346e+000
9.899188e+000
9.901185e+000
9.903335e+000
9.905634e+000
9.908078e+000
9.910664e+000
9.913388e+000
9.916245e+000
9.919232e+000
9.922343e+000
9.925574e+000
9.928919e+000
9.932374e+000
9.935934e+000
9.939592e+000
9.943343e+000
9.947182e+000
9.951102e+000
9.955097e+000
9.959162e+000
9.963290e+000
9.967474e+000
9.971709e+000
9.975987e+000
9.980302e+000
9.984647e+000
9.989017e+000
9.993403e+000
9.997799e+000
9.997633e+000
9.992906e+000
9.988189e+000
9.983491e+000
9.978818e+000
9.974178e+000
9.969578e+000
9.965024e+000
9.960525e+000
9.956086e+000
9.951715e+000
9.947418e+000
9.943203e+000
9.939075e+000
9.935041e+000
9.931108e+000
9.927280e+000
9.923565e+000
9.919967e+000
9.916493e+000
9.913148e+000
9.909936e+000
9.906864e+000
9.903935e+000
9.901154e+000
9.898525e+000
9.896053e+000
9.893742e+000
9.891594e+000
9.889613e+000
9.887803e+000
9.886165e+000
9.884703e+000
9.883419e+000
9.882314e+000
9.881391e+000
9.880651e+000
9.880095e+000
9.879724e+000
9.879538e+000
9.879538e+000
9.879724e+000
9.880095e+000
9.880651e+000
9.881391e+000
9.882314e+000
9.883419e+000
9.884703e+000
9.886165e+000
9.887803e+000
9.889613e+000
9.891594e+000
9.893742e+000
9.896053e+000
9.898525e+000
9.901154e+000
9.903935e+000
9.906864e+000
9.909936e+000
9.913148e+000
9.916493e+000
9.919967e+000
9.923565e+000
9.927280e+000
9.931108e+000
9.935041e+000
9.939075e+000
9.943203e+000
9.947418e+000
9.951715e+000
9.956086e+000
9.960525e+000
9.965024e+000
9.969578e+000
9.974178e+000
9.978818e+000
9.983491e+000
9.988189e+000
9.992906e+000
9.997633e+000
9.997474e+000
9.992428e+000
9.987393e+000
9.982379e+000
9.977391e+000
9.972438e+000
9.967528e+000
9.962667e+000
9.957865e+000
9.953127e+000
9.948462e+000
9.943876e+000
9.939376e+000
9.934970e+000
9.930664e+000
9.926466e+000
9.922380e+000
9.918415e+000
9.914575e+000
9.910866e+000
9.907296e+000
9.903868e+000
9.900588e+000
9.897462e+000
9.894494e+000
9.891688e+000
9.889050e+000
9.886582e+000
9.884289e+000
9.882175e+000
9.880243e+000
9.878495e+000
9.876934e+000
9.875564e+000
9.874385e+000
9.873400e+000
9.872610e+000
9.872016e+000
9.871620e+000
9.871422e+000
9.871422e+000
9.871620e+000
9.872016e+000
9.872610e+000
9.873400e+000
9.874385e+000
9.875564e+000
9.876934e+000
9.878495e+000
9.880243e+000
9.882175e+000
9.884289e+000
9.886582e+000
9.889050e+000
9.891688e+000
9.894494e+000
9.897462e+000
9.900588e+000
9.903868e+000
9.907296e+000
9.910866e+000
9.914575e+000
9.918415e+000
9.922380e+000
9.926466e+000
9.930664e+000
9.934970e+000
9.939376e+000
9.943876e+000
9.948462e+000
9.953127e+000
9.957865e+000
9.962667e+000
9.967528e+000
9.972438e+000
9.977391e+000
9.982379e+000
9.987393e+000
9.992428e+000
9.997474e+000
9.997321e+000
9.991970e+000
9.986632e+000
9.981314e+000
9.976025e+000
9.970772e+000
9.965565e+000
9.960411e+000
9.955318e+000
9.950294e+000
9.945347e+000
9.940484e+000
9.935713e+000
9.931040e+000
9.926474e+000
9.922022e+000
9.917690e+000
9.913484e+000
9.909412e+000
9.905480e+000
9.901693e+000
9.898058e+000
9.894581e+000
9.891265e+000
9.888118e+000
9.885143e+000
9.882345e+000
9.879728e+000
9.877297e+000
9.875055e+000
9.873006e+000
9.871152e+000
9.869497e+000
9.868044e+000
9.866794e+000
9.865749e+000
9.864911e+000
9.864282e+000
9.863862e+000
9.863652e+000
9.863652e+000
9.863862e+000
9.864282e+000
9.864911e+000
9.865749e+000
9.866794e+000
9.868044e+000
9.869497e+000
9.871152e+000
9.873006e+000
9.875055e+000
9.877297e+000
9.879728e+000
9.882345e+000
9.885143e+000
9.888118e+000
9.891265e+000
9.894581e+000
9.898058e+000
9.901693e+000
9.905480e+000
9.909412e+000
9.913484e+000
9.917690e+000
9.922022e+000
9.926474e+000
9.931040e+000
9.935713e+000
9.940484e+000
9.945347e+000
9.950294e+000
9.955318e+000
9.960411e+000
9.965565e+000
9.970772e+000
9.976025e+000
9.981314e+000
9.986632e+000
9.991970e+000
9.997321e+000
9.997176e+000
9.991534e+000
9.985906e+000
9.980300e+000
9.974723e+000
9.969186e+000
9.963697e+000
9.958263e+000
9.952894e+000
9.947597e+000
9.942381e+000
9.937254e+000
9.932224e+000
9.927298e+000
9.922484e+000
9.917790e+000
9.913223e+000
9.908789e+000
9.904496e+000
9.900350e+000
9.896358e+000
9.892526e+000
9.888859e+000
9.885364e+000
9.882046e+000
9.878909e+000
9.875959e+000
9.873201e+000
9.870638e+000
9.868274e+000
9.866114e+000
9.864160e+000
9.862415e+000
9.860883e+000
9.859565e+000
9.858463e+000
9.857580e+000
9.856917e+000
9.856474e+000
9.856252e+000
9.856252e+000
9.856474e+000
9.856917e+000
9.857580e+000
9.858463e+000
9.859565e+000
9.860883e+000
9.862415e+000
9.864160e+000
9.866114e+000
9.868274e+000
9.870638e+000
9.873201e+000
9.875959e+000
9.878909e+000
9.882046e+000
9.885364e+000
9.888859e+000
9.892526e+000
9.896358e+000
9.900350e+000
9.904496e+000
9.908789e+000
9.913223e+000
9.917790e+000
9.922484e+000
9.927298e+000
9.932224e+000
9.937254e+000
9.942381e+000
9.947597e+000
9.952894e+000
9.958263e+000
9.963697e+000
9.969186e+000
9.974723e+000
9.980300e+000
9.985906e+000
9.991534e+000
9.997176e+000
9.997038e+000
9.991122e+000
9.985219e+000
9.979340e+000
9.973492e+000
9.967685e+000
9.961927e+000
9.956229e+000
9.950598e+000
9.945043e+000
9.939573e+000
9.934196e+000
9.928921e+000
9.923755e+000
9.918707e+000
9.913784e+000
9.908994e+000
9.904344e+000
9.899842e+000
9.895494e+000
9.891307e+000
9.887288e+000
9.883443e+000
9.879778e+000
9.876298e+000
9.873008e+000
9.869915e+000
9.867022e+000
9.864334e+000
9.861855e+000
9.859589e+000
9.857540e+000
9.855710e+000
9.854103e+000
9.852721e+000
9.851566e+000
9.850640e+000
9.849944e+000
9.849479e+000
9.849247e+000
9.849247e+000
9.849479e+000
9.849944e+000
9.850640e+000
9.851566e+000
9.852721e+000
9.854103e+000
9.855710e+000
9.857540e+000
9.859589e+000
9.861855e+000
9.864334e+000
9.867022e+000
9.869915e+000
9.873008e+000
9.876298e+000
9.879778e+000
9.883443e+000
9.887288e+000
9.891307e+000
9.895494e+000
9.899842e+000
9.904344e+000
9.908994e+000
9.913784e+000
9.918707e+000
9.923755e+000
9.928921e+000
9.934196e+000
9.939573e+000
9.945043e+000
9.950598e+000
9.956229e+000
9.961927e+000
9.967685e+000
9.973492e+000
9.979340e+000
9.985219e+000
9.991122e+000
9.997038e+000
9.996909e+000
9.990734e+000
9.984573e+000
9.978437e+000
9.972333e+000
9.966272e+000
9.960264e+000
9.954316e+000
9.948439e+000
9.942642e+000
9.936933e+000
9.931321e+000
9.925815e+000
9.920423e+000
9.915154e+000
9.910016e+000
9.905017e+000
9.900164e+000
9.895465e+000
9.890927e+000
9.886558e+000
9.882363e+000
9.878350e+000
9.874524e+000
9.870892e+000
9.867459e+000
9.864230e+000
9.861211e+000
9.858405e+000
9.855818e+000
9.853453e+000
9.851315e+000
9.849405e+000
9.847728e+000
9.846285e+000
9.845080e+000
9.844113e+000
9.843387e+000
9.842902e+000
9.842659e+000
9.842659e+000
9.842902e+000
9.843387e+000
9.844113e+000
9.845080e+000
9.846285e+000
9.847728e+000
9.849405e+000
9.851315e+000
9.853453e+000
9.855818e+000
9.858405e+000
9.861211e+000
9.864230e+000
9.867459e+000
9.870892e+000
9.874524e+000
9.878350e+000
9.882363e+000
9.886558e+000
9.890927e+000
9.895465e+000
9.900164e+000
9.905017e+000
9.910016e+000
9.915154e+000
9.920423e+000
9.925815e+000
9.931321e+000
9.936933e+000
9.942642e+000
9.948439e+000
9.954316e+000
9.960264e+000
9.966272e+000
9.972333e+000
9.978437e+000
9.984573e+000
9.990734e+000
9.996909e+000
9.996788e+000
9.990372e+000
9.983971e+000
9.977594e+000
9.971252e+000
9.964955e+000
9.958711e+000
9.952532e+000
9.946425e+000
9.940401e+000
9.934469e+000
9.928638e+000
9.922917e+000
9.917314e+000
9.911840e+000
9.906501e+000
9.901306e+000
9.896264e+000
9.891381e+000
9.886666e+000
9.882126e+000
9.877767e+000
9.873597e+000
9.869622e+000
9.865848e+000
9.862281e+000
9.858926e+000
9.855789e+000
9.852874e+000
9.850186e+000
9.847728e+000
9.845506e+000
9.843522e+000
9.841779e+000
9.840280e+000
9.839027e+000
9.838023e+000
9.837268e+000
9.836764e+000
9.836512e+000
9.836512e+000
9.836764e+000
9.837268e+000
9.838023e+000
9.839027e+000
9.840280e+000
9.841779e+000
9.843522e+000
9.845506e+000
9.847728e+000
9.850186e+000
9.852874e+000
9.855789e+000
9.858926e+000
9.862281e+000
9.865848e+000
9.869622e+000
9.873597e+000
9.877767e+000
9.882126e+000
9.886666e+000
9.891381e+000
9.896264e+000
9.901306e+000
9.906501e+000
9.911840e+000
9.917314e+000
9.922917e+000
9.928638e+000
9.934469e+000
9.940401e+000
9.946425e+000
9.952532e+000
9.958711e+000
9.964955e+000
9.971252e+000
9.977594e+000
9.983971e+000
9.990372e+000
9.996788e+000
9.996676e+000
9.990037e+000
9.983413e+000
9.976815e+000
9.970253e+000
9.963737e+000
9.957276e+000
9.950881e+000
9.944562e+000
9.938329e+000
9.932191e+000
9.926157e+000
9.920237e+000
9.914440e+000
9.908775e+000
9.903251e+000
9.897875e+000
9.892658e+000
9.887605e+000
9.882726e+000
9.878028e+000
9.873518e+000
9.869203e+000
9.865090e+000
9.861185e+000
9.857493e+000
9.854022e+000
9.850776e+000
9.847759e+000
9.844978e+000
9.842435e+000
9.840135e+000
9.838082e+000
9.836279e+000
9.834728e+000
9.833432e+000
9.832392e+000
9.831611e+000
9.831090e+000
9.830829e+000
9.830829e+000
9.831090e+000
9.831611e+000
9.832392e+000
9.833432e+000
9.834728e+000
9.836279e+000
9.838082e+000
9.840135e+000
9.842435e+000
9.844978e+000
9.847759e+000
9.850776e+000
9.854022e+000
9.857493e+000
9.861185e+000
9.865090e+000
9.869203e+000
9.873518e+000
9.878028e+000
9.882726e+000
9.887605e+000
9.892658e+000
9.897875e+000
9.903251e+000
9.908775e+000
9.914440e+000
9.920237e+000
9.926157e+000
9.932191e+000
9.938329e+000
9.944562e+000
9.950881e+000
9.957276e+000
9.963737e+000
9.970253e+000
9.976815e+000
9.983413e+000
9.990037e+000
9.996676e+000
9.996574e+000
9.989731e+000
9.982904e+000
9.976103e+000
9.969339e+000
9.962622e+000
9.955963e+000
9.949372e+000
9.942859e+000
9.936434e+000
9.930107e+000
9.923888e+000
9.917786e+000
9.911811e+000
9.905972e+000
9.900278e+000
9.894738e+000
9.889360e+000
9.884152e+000
9.879123e+000
9.874281e+000
9.869632e+000
9.865185e+000
9.860945e+000
9.856920e+000
9.853115e+000
9.849537e+000
9.846191e+000
9.843082e+000
9.840215e+000
9.837594e+000
9.835224e+000
9.833108e+000
9.831249e+000
9.829650e+000
9.828314e+000
9.827243e+000
9.826438e+000
9.825900e+000
9.825632e+000
9.825632e+000
9.825900e+000
9.826438e+000
9.827243e+000
9.828314e+000
9.829650e+000
9.831249e+000
9.833108e+000
9.835224e+000
9.837594e+000
9.840215e+000
9.843082e+000
9.846191e+000
9.849537e+000
9.853115e+000
9.856920e+000
9.860945e+000
9.865185e+000
9.869632e+000
9.874281e+000
9.879123e+000
9.884152e+000
9.889360e+000
9.894738e+000
9.900278e+000
9.905972e+000
9.911811e+000
9.917786e+000
9.923888e+000
9.930107e+000
9.936434e+000
9.942859e+000
9.949372e+000
9.955963e+000
9.962622e+000
9.969339e+000
9.976103e+000
9.982904e+000
9.989731e+000
9.996574e+000
9.996482e+000
9.989455e+000
9.982444e+000
9.975460e+000
9.968514e+000
9.961617e+000
9.954779e+000
9.948011e+000
9.941322e+000
9.934725e+000
9.928227e+000
9.921841e+000
9.915575e+000
9.909439e+000
9.903443e+000
9.897596e+000
9.891907e+000
9.886384e+000
9.881036e+000
9.875872e+000
9.870900e+000
9.866126e+000
9.861559e+000
9.857205e+000
9.853072e+000
9.849165e+000
9.845490e+000
9.842054e+000
9.838861e+000
9.835917e+000
9.833226e+000
9.830792e+000
9.828619e+000
9.826710e+000
9.825068e+000
9.823696e+000
9.822596e+000
9.821770e+000
9.821218e+000
9.820942e+000
9.820942e+000
9.821218e+000
9.821770e+000
9.822596e+000
9.823696e+000
9.825068e+000
9.826710e+000
9.828619e+000
9.830792e+000
9.833226e+000
9.835917e+000
9.838861e+000
9.842054e+000
9.845490e+000
9.849165e+000
9.853072e+000
9.857205e+000
9.861559e+000
9.866126e+000
9.870900e+000
9.875872e+000
9.881036e+000
9.886384e+000
9.891907e+000
9.897596e+000
9.903443e+000
9.909439e+000
9.915575e+000
9.921841e+000
9.928227e+000
9.934725e+000
9.941322e+000
9.948011e+000
9.954779e+000
9.961617e+000
9.968514e+000
9.975460e+000
9.982444e+000
9.989455e+000
9.996482e+000
9.996400e+000
9.989210e+000
9.982036e+000
9.974890e+000
9.967783e+000
9.960725e+000
9.953728e+000
9.946803e+000
9.939959e+000
9.933208e+000
9.926560e+000
9.920025e+000
9.913613e+000
9.907335e+000
9.901200e+000
9.895216e+000
9.889395e+000
9.883744e+000
9.878272e+000
9.872988e+000
9.867900e+000
9.863015e+000
9.858342e+000
9.853887e+000
9.849658e+000
9.845660e+000
9.841900e+000
9.838384e+000
9.835117e+000
9.832105e+000
9.829351e+000
9.826860e+000
9.824637e+000
9.822683e+000
9.821004e+000
9.819600e+000
9.818474e+000
9.817628e+000
9.817064e+000
9.816781e+000
9.816781e+000
9.817064e+000
9.817628e+000
9.818474e+000
9.819600e+000
9.821004e+000
9.822683e+000
9.824637e+000
9.826860e+000
9.829351e+000
9.832105e+000
9.835117e+000
9.838384e+000
9.841900e+000
9.845660e+000
9.849658e+000
9.853887e+000
9.858342e+000
9.863015e+000
9.867900e+000
9.872988e+000
9.878272e+000
9.883744e+000
9.889395e+000
9.895216e+000
9.901200e+000
9.907335e+000
9.913613e+000
9.920025e+000
9.926560e+000
9.933208e+000
9.939959e+000
9.946803e+000
9.953728e+000
9.960725e+000
9.967783e+000
9.974890e+000
9.982036e+000
9.989210e+000
9.996400e+000
9.996329e+000
9.988997e+000
9.981682e+000
9.974395e+000
9.967148e+000
9.959951e+000
9.952816e+000
9.945754e+000
9.938776e+000
9.931892e+000
9.925113e+000
9.918449e+000
9.911911e+000
9.905509e+000
9.899253e+000
9.893152e+000
9.887215e+000
9.881453e+000
9.875874e+000
9.870485e+000
9.865297e+000
9.860316e+000
9.855551e+000
9.851008e+000
9.846695e+000
9.842619e+000
9.838785e+000
9.835199e+000
9.831868e+000
9.828796e+000
9.825988e+000
9.823449e+000
9.821181e+000
9.819189e+000
9.817477e+000
9.816045e+000
9.814897e+000
9.814035e+000
9.813459e+000
9.813171e+000
9.813171e+000
9.813459e+000
9.814035e+000
9.814897e+000
9.816045e+000
9.817477e+000
9.819189e+000
9.821181e+000
9.823449e+000
9.825988e+000
9.828796e+000
9.831868e+000
9.835199e+000
9.838785e+000
9.842619e+000
9.846695e+000
9.851008e+000
9.855551e+000
9.860316e+000
9.865297e+000
9.870485e+000
9.875874e+000
9.881453e+000
9.887215e+000
9.893152e+000
9.899253e+000
9.905509e+000
9.911911e+000
9.918449e+000
9.925113e+000
9.931892e+000
9.938776e+000
9.945754e+000
9.952816e+000
9.959951e+000
9.967148e+000
9.974395e+000
9.981682e+000
9.988997e+000
9.996329e+000
9.996269e+000
9.988818e+000
9.981384e+000
9.973979e+000
9.966613e+000
9.959300e+000
9.952049e+000
9.944872e+000
9.937780e+000
9.930784e+000
9.923894e+000
9.917122e+000
9.910478e+000
9.903972e+000
9.897614e+000
9.891413e+000
9.885381e+000
9.879525e+000
9.873854e+000
9.868378e+000
9.863105e+000
9.858044e+000
9.853201e+000
9.848584e+000
9.844201e+000
9.840058e+000
9.836162e+000
9.832518e+000
9.829133e+000
9.826011e+000
9.823157e+000
9.820576e+000
9.818272e+000
9.816248e+000
9.814507e+000
9.813052e+000
9.811886e+000
9.811009e+000
9.810424e+000
9.810132e+000
9.810132e+000
9.810424e+000
9.811009e+000
9.811886e+000
9.813052e+000
9.814507e+000
9.816248e+000
9.818272e+000
9.820576e+000
9.823157e+000
9.826011e+000
9.829133e+000
9.832518e+000
9.836162e+000
9.840058e+000
9.844201e+000
9.848584e+000
9.853201e+000
9.858044e+000
9.863105e+000
9.868378e+000
9.873854e+000
9.879525e+000
9.885381e+000
9.891413e+000
9.897614e+000
9.903972e+000
9.910478e+000
9.917122e+000
9.923894e+000
9.930784e+000
9.937780e+000
9.944872e+000
9.952049e+000
9.959300e+000
9.966613e+000
9.973979e+000
9.981384e+000
9.988818e+000
9.996269e+000
9.996221e+000
9.988674e+000
9.981144e+000
9.973643e+000
9.966183e+000
9.958775e+000
9.951430e+000
9.944161e+000
9.936977e+000
9.929891e+000
9.922913e+000
9.916054e+000
9.909324e+000
9.902734e+000
9.896293e+000
9.890013e+000
9.883903e+000
9.877971e+000
9.872228e+000
9.866681e+000
9.861340e+000
9.856213e+000
9.851308e+000
9.846632e+000
9.842192e+000
9.837996e+000
9.834049e+000
9.830359e+000
9.826930e+000
9.823767e+000
9.820877e+000
9.818263e+000
9.815929e+000
9.813878e+000
9.812115e+000
9.810642e+000
9.809460e+000
9.808572e+000
9.807980e+000
9.807683e+000
9.807683e+000
9.807980e+000
9.808572e+000
9.809460e+000
9.810642e+000
9.812115e+000
9.813878e+000
9.815929e+000
9.818263e+000
9.820877e+000
9.823767e+000
9.826930e+000
9.830359e+000
9.834049e+000
9.837996e+000
9.842192e+000
9.846632e+000
9.851308e+000
9.856213e+000
9.861340e+000
9.866681e+000
9.872228e+000
9.877971e+000
9.883903e+000
9.890013e+000
9.896293e+000
9.902734e+000
9.909324e+000
9.916054e+000
9.922913e+000
9.929891e+000
9.936977e+000
9.944161e+000
9.951430e+000
9.958775e+000
9.966183e+000
9.973643e+000
9.981144e+000
9.988674e+000
9.996221e+000
9.996185e+000
9.988566e+000
9.980964e+000
9.973391e+000
9.965860e+000
9.958381e+000
9.950966e+000
9.943627e+000
9.936375e+000
9.929221e+000
9.922176e+000
9.915251e+000
9.908457e+000
9.901804e+000
9.895302e+000
9.888962e+000
9.882793e+000
9.876805e+000
9.871007e+000
9.865407e+000
9.860015e+000
9.854839e+000
9.849887e+000
9.845166e+000
9.840684e+000
9.836448e+000
9.832464e+000
9.828738e+000
9.825276e+000
9.822084e+000
9.819165e+000
9.816526e+000
9.814170e+000
9.812100e+000
9.810320e+000
9.808832e+000
9.807639e+000
9.806743e+000
9.806145e+000
9.805846e+000
9.805846e+000
9.806145e+000
9.806743e+000
9.807639e+000
9.808832e+000
9.810320e+000
9.812100e+000