# vtk DataFile Version 3.0
steady_diffusion_2D
ASCII
DATASET STRUCTURED_POINTS
DIMENSIONS 40 40 1
ORIGIN 0.0 0.0 0.0
SPACING 0.025 0.025 1.0
POINT_DATA 1600
SCALARS Temperature double 1
LOOKUP_TABLE default
1.000013e+001
1.000040e+001
1.000066e+001
1.000092e+001
1.000118e+001
1.000142e+001
1.000166e+001
1.000189e+001
1.000211e+001
1.000231e+001
1.000250e+001
1.000267e+001
1.000283e+001
1.000297e+001
1.000309e+001
1.000319e+001
1.000327e+001
1.000334e+001
1.000338e+001
1.000340e+001
1.000340e+001
1.000338e+001
1.000334e+001
1.000327e+001
1.000319e+001
1.000309e+001
1.000297e+001
1.000283e+001
1.000267e+001
1.000250e+001
1.000231e+001
1.000211e+001
1.000189e+001
1.000166e+001
1.000142e+001
1.000118e+001
1.000092e+001
1.000066e+001
1.000040e+001
1.000013e+001
1.000040e+001
1.000120e+001
1.000200e+001
1.000278e+001
1.000354e+001
1.000428e+001
1.000500e+001
1.000568e+001
1.000633e+001
1.000694e+001
1.000751e+001
1.000803e+001
1.000850e+001
1.000892e+001
1.000929e+001
1.000960e+001
1.000984e+001
1.001003e+001
1.001016e+001
1.001022e+001
1.001022e+001
1.001016e+001
1.001003e+001
1.000984e+001
1.000960e+001
1.000929e+001
1.000892e+001
1.000850e+001
1.000803e+001
1.000751e+001
1.000694e+001
1.000633e+001
1.000568e+001
1.000500e+001
1.000428e+001
1.000354e+001
1.000278e+001
1.000200e+001
1.000120e+001
1.000040e+001
1.000067e+001
1.000201e+001
1.000334e+001
1.000465e+001
1.000592e+001
1.000717e+001
1.000836e+001
1.000951e+001
1.001060e+001
1.001162e+001
1.001257e+001
1.001344e+001
1.001423e+001
1.001493e+001
1.001554e+001
1.001606e+001
1.001647e+001
1.001679e+001
1.001700e+001
1.001710e+001
1.001710e+001
1.001700e+001
1.001679e+001
1.001647e+001
1.001606e+001
1.001554e+001
1.001493e+001
1.001423e+001
1.001344e+001
1.001257e+001
1.001162e+001
1.001060e+001
1.000951e+001
1.000836e+001
1.000717e+001
1.000592e+001
1.000465e+001
1.000334e+001
1.000201e+001
1.000067e+001
1.000095e+001
1.000283e+001
1.000470e+001
1.000654e+001
1.000835e+001
1.001009e+001
1.001178e+001
1.001339e+001
1.001493e+001
1.001637e+001
1.001770e+001
1.001893e+001
1.002005e+001
1.002104e+001
1.002190e+001
1.002262e+001
1.002321e+001
1.002365e+001
1.002394e+001
1.002409e+001
1.002409e+001
1.002394e+001
1.002365e+001
1.002321e+001
1.002262e+001
1.002190e+001
1.002104e+001
1.002005e+001
1.001893e+001
1.001770e+001
1.001637e+001
1.001493e+001
1.001339e+001
1.001178e+001
1.001009e+001
1.000835e+001
1.000654e+001
1.000470e+001
1.000283e+001
1.000095e+001
1.000123e+001
1.000367e+001
1.000610e+001
1.000848e+001
1.001082e+001
1.001308e+001
1.001527e+001
1.001736e+001
1.001935e+001
1.002121e+001
1.002295e+001
1.002454e+001
1.002599e+001
1.002727e+001
1.002838e+001
1.002932e+001
1.003008e+001
1.003065e+001
1.003104e+001
1.003123e+001
1.003123e+001
1.003104e+001
1.003065e+001
1.003008e+001
1.002932e+001
1.002838e+001
1.002727e+001
1.002599e+001
1.002454e+001
1.002295e+001
1.002121e+001
1.001935e+001
1.001736e+001
1.001527e+001
1.001308e+001
1.001082e+001
1.000848e+001
1.000610e+001
1.000367e+001
1.000123e+001
1.000151e+001
1.000454e+001
1.000753e+001
1.001047e+001
1.001336e+001
1.001616e+001
1.001886e+001
1.002144e+001
1.002389e+001
1.002619e+001
1.002834e+001
1.003030e+001
1.003209e+001
1.003367e+001
1.003504e+001
1.003620e+001
1.003714e+001
1.003785e+001
1.003832e+001
1.003856e+001
1.003856e+001
1.003832e+001
1.003785e+001
1.003714e+001
1.003620e+001
1.003504e+001
1.003367e+001
1.003209e+001
1.003030e+001
1.002834e+001
1.002619e+001
1.002389e+001
1.002144e+001
1.001886e+001
1.001616e+001
1.001336e+001
1.001047e+001
1.000753e+001
1.000454e+001
1.000151e+001
1.000181e+001
1.000543e+001
1.000901e+001
1.001253e+001
1.001598e+001
1.001933e+001
1.002256e+001
1.002565e+001
1.002858e+001
1.003133e+001
1.003390e+001
1.003625e+001
1.003838e+001
1.004028e+001
1.004192e+001
1.004331e+001
1.004443e+001
1.004527e+001
1.004584e+001
1.004613e+001
1.004613e+001
1.004584e+001
1.004527e+001
1.004443e+001
1.004331e+001
1.004192e+001
1.004028e+001
1.003838e+001
1.003625e+001
1.003390e+001
1.003133e+001
1.002858e+001
1.002565e+001
1.002256e+001
1.001933e+001
1.001598e+001
1.001253e+001
1.000901e+001
1.000543e+001
1.000181e+001
1.000212e+001
1.000635e+001
1.001054e+001
1.001466e+001
1.001870e+001
1.002262e+001
1.002640e+001
1.003001e+001
1.003344e+001
1.003667e+001
1.003967e+001
1.004242e+001
1.004492e+001
1.004713e+001
1.004906e+001
1.005068e+001
1.005199e+001
1.005298e+001
1.005365e+001
1.005398e+001
1.005398e+001
1.005365e+001
1.005298e+001
1.005199e+001
1.005068e+001
1.004906e+001
1.004713e+001
1.004492e+001
1.004242e+001
1.003967e+001
1.003667e+001
1.003344e+001
1.003001e+001
1.002640e+001
1.002262e+001
1.001870e+001
1.001466e+001
1.001054e+001
1.000635e+001
1.000212e+001
1.000244e+001
1.000731e+001
1.001214e+001
1.001689e+001
1.002153e+001
1.002605e+001
1.003040e+001
1.003456e+001
1.003851e+001
1.004223e+001
1.004568e+001
1.004886e+001
1.005173e+001
1.005428e+001
1.005650e+001
1.005837e+001
1.005988e+001
1.006102e+001
1.006178e+001
1.006216e+001
1.006216e+001
1.006178e+001
1.006102e+001
1.005988e+001
1.005837e+001
1.005650e+001
1.005428e+001
1.005173e+001
1.004886e+001
1.004568e+001
1.004223e+001
1.003851e+001
1.003456e+001
1.003040e+001
1.002605e+001
1.002153e+001
1.001689e+001
1.001214e+001
1.000731e+001
1.000244e+001
1.000278e+001
1.000832e+001
1.001381e+001
1.001921e+001
1.002450e+001
1.002964e+001
1.003459e+001
1.003933e+001
1.004382e+001
1.004805e+001
1.005198e+001
1.005559e+001
1.005886e+001
1.006176e+001
1.006428e+001
1.006641e+001
1.006813e+001
1.006943e+001
1.007029e+001
1.007073e+001
1.007073e+001
1.007029e+001
1.006943e+001
1.006813e+001
1.006641e+001
1.006428e+001
1.006176e+001
1.005886e+001
1.005559e+001
1.005198e+001
1.004805e+001
1.004382e+001
1.003933e+001
1.003459e+001
1.002964e+001
1.002450e+001
1.001921e+001
1.001381e+001
1.000832e+001
1.000278e+001
1.000313e+001
1.000938e+001
1.001557e+001
1.002166e+001
1.002762e+001
1.003341e+001
1.003899e+001
1.004433e+001
1.004940e+001
1.005417e+001
1.005860e+001
1.006267e+001
1.006635e+001
1.006962e+001
1.007247e+001
1.007486e+001
1.007680e+001
1.007826e+001
1.007924e+001
1.007974e+001
1.007974e+001
1.007924e+001
1.007826e+001
1.007680e+001
1.007486e+001
1.007247e+001
1.006962e+001
1.006635e+001
1.006267e+001
1.005860e+001
1.005417e+001
1.004940e+001
1.004433e+001
1.003899e+001
1.003341e+001
1.002762e+001
1.002166e+001
1.001557e+001
1.000938e+001
1.000313e+001
1.000351e+001
1.001050e+001
1.001742e+001
1.002424e+001
1.003091e+001
1.003739e+001
1.004363e+001
1.004961e+001
1.005528e+001
1.006062e+001
1.006557e+001
1.007013e+001
1.007425e+001
1.007791e+001
1.008110e+001
1.008378e+001
1.008595e+001
1.008758e+001
1.008868e+001
1.008923e+001
1.008923e+001
1.008868e+001
1.008758e+001
1.008595e+001
1.008378e+001
1.008110e+001
1.007791e+001
1.007425e+001
1.007013e+001
1.006557e+001
1.006062e+001
1.005528e+001
1.004961e+001
1.004363e+001
1.003739e+001
1.003091e+001
1.002424e+001
1.001742e+001
1.001050e+001
1.000351e+001
1.000390e+001
1.001168e+001
1.001938e+001
1.002697e+001
1.003439e+001
1.004160e+001
1.004855e+001
1.005520e+001
1.006151e+001
1.006744e+001
1.007296e+001
1.007802e+001
1.008261e+001
1.008669e+001
1.009023e+001
1.009321e+001
1.009562e+001
1.009744e+001
1.009866e+001
1.009928e+001
1.009928e+001
1.009866e+001
1.009744e+001
1.009562e+001
1.009321e+001
1.009023e+001
1.008669e+001
1.008261e+001
1.007802e+001
1.007296e+001
1.006744e+001
1.006151e+001
1.005520e+001
1.004855e+001
1.004160e+001
1.003439e+001
1.002697e+001
1.001938e+001
1.001168e+001
1.000390e+001
1.000432e+001
1.001293e+001
1.002146e+001
1.002986e+001
1.003808e+001
1.004606e+001
1.005376e+001
1.006112e+001
1.006811e+001
1.007468e+001
1.008079e+001
1.008640e+001
1.009148e+001
1.009599e+001
1.009991e+001
1.010322e+001
1.010589e+001
1.010791e+001
1.010926e+001
1.010993e+001
1.010993e+001
1.010926e+001
1.010791e+001
1.010589e+001
1.010322e+001
1.009991e+001
1.009599e+001
1.009148e+001
1.008640e+001
1.008079e+001
1.007468e+001
1.006811e+001
1.006112e+001
1.005376e+001
1.004606e+001
1.003808e+001
1.002986e+001
1.002146e+001
1.001293e+001
1.000432e+001
1.000476e+001
1.001426e+001
1.002368e+001
1.003294e+001
1.004201e+001
1.005081e+001
1.005930e+001
1.006743e+001
1.007514e+001
1.008238e+001
1.008912e+001
1.009531e+001
1.010091e+001
1.010589e+001
1.011022e+001
1.011386e+001
1.011681e+001
1.011903e+001
1.012052e+001
1.012127e+001
1.012127e+001
1.012052e+001
1.011903e+001
1.011681e+001
1.011386e+001
1.011022e+001
1.010589e+001
1.010091e+001
1.009531e+001
1.008912e+001
1.008238e+001
1.007514e+001
1.006743e+001
1.005930e+001
1.005081e+001
1.004201e+001
1.003294e+001
1.002368e+001
1.001426e+001
1.000476e+001
1.000524e+001
1.001569e+001
1.002604e+001
1.003623e+001
1.004619e+001
1.005587e+001
1.006521e+001
1.007414e+001
1.008262e+001
1.009059e+001
1.009800e+001
1.010481e+001
1.011097e+001
1.011644e+001
1.012120e+001
1.012521e+001
1.012845e+001
1.013089e+001
1.013253e+001
1.013335e+001
1.013335e+001
1.013253e+001
1.013089e+001
1.012845e+001
1.012521e+001
1.012120e+001
1.011644e+001
1.011097e+001
1.010481e+001
1.009800e+001
1.009059e+001
1.008262e+001
1.007414e+001
1.006521e+001
1.005587e+001
1.004619e+001
1.003623e+001
1.002604e+001
1.001569e+001
1.000524e+001
1.000575e+001
1.001720e+001
1.002856e+001
1.003973e+001
1.005066e+001
1.006128e+001
1.007152e+001
1.008132e+001
1.009062e+001
1.009936e+001
1.010748e+001
1.011495e+001
1.012170e+001
1.012771e+001
1.013293e+001
1.013733e+001
1.014088e+001
1.014356e+001
1.014536e+001
1.014626e+001
1.014626e+001
1.014536e+001
1.014356e+001
1.014088e+001
1.013733e+001
1.013293e+001
1.012771e+001
1.012170e+001
1.011495e+001
1.010748e+001
1.009936e+001
1.009062e+001
1.008132e+001
1.007152e+001
1.006128e+001
1.005066e+001
1.003973e+001
1.002856e+001
1.001720e+001
1.000575e+001
1.000629e+001
1.001883e+001
1.003125e+001
1.004348e+001
1.005544e+001
1.006707e+001
1.007827e+001
1.008900e+001
1.009917e+001
1.010874e+001
1.011763e+001
1.012580e+001
1.013319e+001
1.013977e+001
1.014548e+001
1.015029e+001
1.015418e+001
1.015711e+001
1.015908e+001
1.016007e+001
1.016007e+001
1.015908e+001
1.015711e+001
1.015418e+001
1.015029e+001
1.014548e+001
1.013977e+001
1.013319e+001
1.012580e+001
1.011763e+001
1.010874e+001
1.009917e+001
1.008900e+001
1.007827e+001
1.006707e+001
1.005544e+001
1.004348e+001
1.003125e+001
1.001883e+001
1.000629e+001
1.000687e+001
1.002057e+001
1.003414e+001
1.004750e+001
1.006057e+001
1.007326e+001
1.008551e+001
1.009722e+001
1.010834e+001
1.011879e+001
1.012850e+001
1.013743e+001
1.014550e+001
1.015268e+001
1.015892e+001
1.016418e+001
1.016843e+001
1.017163e+001
1.017378e+001
1.017486e+001
1.017486e+001
1.017378e+001
1.017163e+001
1.016843e+001
1.016418e+001
1.015892e+001
1.015268e+001
1.014550e+001
1.013743e+001
1.012850e+001
1.011879e+001
1.010834e+001
1.009722e+001
1.008551e+001
1.007326e+001
1.006057e+001
1.004750e+001
1.003414e+001
1.002057e+001
1.000687e+001
1.000749e+001
1.002244e+001
1.003724e+001
1.005181e+001
1.006607e+001
1.007991e+001
1.009327e+001
1.010605e+001
1.011817e+001
1.012957e+001
1.014017e+001
1.014990e+001
1.015871e+001
1.016654e+001
1.017335e+001
1.017908e+001
1.018372e+001
1.018721e+001
1.018956e+001
1.019073e+001
1.019073e+001
1.018956e+001
1.018721e+001
1.018372e+001
1.017908e+001
1.017335e+001
1.016654e+001
1.015871e+001
1.014990e+001
1.014017e+001
1.012957e+001
1.011817e+001
1.010605e+001
1.009327e+001
1.007991e+001
1.006607e+001
1.005181e+001
1.003724e+001
1.002244e+001
1.000749e+001
1.000816e+001
1.002444e+001
1.004057e+001
1.005644e+001
1.007197e+001
1.008706e+001
1.010161e+001
1.011553e+001
1.012874e+001
1.014115e+001
1.015270e+001
1.016330e+001
1.017290e+001
1.018143e+001
1.018884e+001
1.019509e+001
1.020014e+001
1.020395e+001
1.020650e+001
1.020778e+001
1.020778e+001
1.020650e+001
1.020395e+001
1.020014e+001
1.019509e+001
1.018884e+001
1.018143e+001
1.017290e+001
1.016330e+001
1.015270e+001
1.014115e+001
1.012874e+001
1.011553e+001
1.010161e+001
1.008706e+001
1.007197e+001
1.005644e+001
1.004057e+001
1.002444e+001
1.000816e+001
1.000888e+001
1.002660e+001
1.004415e+001
1.006142e+001
1.007832e+001
1.009474e+001
1.011057e+001
1.012572e+001
1.014009e+001
1.015360e+001
1.016617e+001
1.017771e+001
1.018815e+001
1.019743e+001
1.020550e+001
1.021230e+001
1.021779e+001
1.022194e+001
1.022472e+001
1.022611e+001
1.022611e+001
1.022472e+001
1.022194e+001
1.021779e+001
1.021230e+001
1.020550e+001
1.019743e+001
1.018815e+001
1.017771e+001
1.016617e+001
1.015360e+001
1.014009e+001
1.012572e+001
1.011057e+001
1.009474e+001
1.007832e+001
1.006142e+001
1.004415e+001
1.002660e+001
1.000888e+001
1.000966e+001
1.002892e+001
1.004800e+001
1.006678e+001
1.008515e+001
1.010300e+001
1.012021e+001
1.013668e+001
1.015231e+001
1.016700e+001
1.018066e+001
1.019321e+001
1.020456e+001
1.021466e+001
1.022343e+001
1.023082e+001
1.023679e+001
1.024130e+001
1.024432e+001
1.024584e+001
1.024584e+001
1.024432e+001
1.024130e+001
1.023679e+001
1.023082e+001
1.022343e+001
1.021466e+001
1.020456e+001
1.019321e+001
1.018066e+001
1.016700e+001
1.015231e+001
1.013668e+001
1.012021e+001
1.010300e+001
1.008515e+001
1.006678e+001
1.004800e+001
1.002892e+001
1.000966e+001
1.001049e+001
1.003142e+001
1.005214e+001
1.007255e+001
1.009251e+001
1.011190e+001
1.013060e+001
1.014849e+001
1.016547e+001
1.018143e+001
1.019627e+001
1.020990e+001
1.022224e+001
1.023320e+001
1.024273e+001
1.025076e+001
1.025725e+001
1.026215e+001
1.026543e+001
1.026708e+001
1.026708e+001
1.026543e+001
1.026215e+001
1.025725e+001
1.025076e+001
1.024273e+001
1.023320e+001
1.022224e+001
1.020990e+001
1.019627e+001
1.018143e+001
1.016547e+001
1.014849e+001
1.013060e+001
1.011190e+001
1.009251e+001
1.007255e+001
1.005214e+001
1.003142e+001
1.001049e+001
1.001139e+001
1.003411e+001
1.005661e+001
1.007877e+001
1.010044e+001
1.012149e+001
1.014179e+001
1.016122e+001
1.017965e+001
1.019698e+001
1.021309e+001
1.022789e+001
1.024128e+001
1.025319e+001
1.026353e+001
1.027225e+001
1.027929e+001
1.028461e+001
1.028817e+001
1.028996e+001
1.028996e+001
1.028817e+001
1.028461e+001
1.027929e+001
1.027225e+001
1.026353e+001
1.025319e+001
1.024128e+001
1.022789e+001
1.021309e+001
1.019698e+001
1.017965e+001
1.016122e+001
1.014179e+001
1.012149e+001
1.010044e+001
1.007877e+001
1.005661e+001
1.003411e+001
1.001139e+001
1.001236e+001
1.003701e+001
1.006143e+001
1.008547e+001
1.010898e+001
1.013183e+001
1.015386e+001
1.017494e+001
1.019494e+001
1.021374e+001
1.023122e+001
1.024728e+001
1.026181e+001
1.027473e+001
1.028596e+001
1.029542e+001
1.030306e+001
1.030883e+001
1.031270e+001
1.031464e+001
1.031464e+001
1.031270e+001
1.030883e+001
1.030306e+001
1.029542e+001
1.028596e+001
1.027473e+001
1.026181e+001
1.024728e+001
1.023122e+001
1.021374e+001
1.019494e+001
1.017494e+001
1.015386e+001
1.013183e+001
1.010898e+001
1.008547e+001
1.006143e+001
1.003701e+001
1.001236e+001
1.001341e+001
1.004014e+001
1.006663e+001
1.009270e+001
1.011820e+001
1.014298e+001
1.016687e+001
1.018973e+001
1.021143e+001
1.023182e+001
1.025078e+001
1.026820e+001
1.028396e+001
1.029797e+001
1.031014e+001
1.032040e+001
1.032869e+001
1.033495e+001
1.033915e+001
1.034125e+001
1.034125e+001
1.033915e+001
1.033495e+001
1.032869e+001
1.032040e+001
1.031014e+001
1.029797e+001
1.028396e+001
1.026820e+001
1.025078e+001
1.023182e+001
1.021143e+001
1.018973e+001
1.016687e+001
1.014298e+001
1.011820e+001
1.009270e+001
1.006663e+001
1.004014e+001
1.001341e+001
1.001454e+001
1.004352e+001
1.007223e+001
1.010050e+001
1.012815e+001
1.015501e+001
1.018091e+001
1.020570e+001
1.022922e+001
1.025133e+001
1.027189e+001
1.029077e+001
1.030785e+001
1.032304e+001
1.033624e+001
1.034737e+001
1.035635e+001
1.036314e+001
1.036769e+001
1.036997e+001
1.036997e+001
1.036769e+001
1.036314e+001
1.035635e+001
1.034737e+001
1.033624e+001
1.032304e+001
1.030785e+001
1.029077e+001
1.027189e+001
1.025133e+001
1.022922e+001
1.020570e+001
1.018091e+001
1.015501e+001
1.012815e+001
1.010050e+001
1.007223e+001
1.004352e+001
1.001454e+001
1.001575e+001
1.004716e+001
1.007828e+001
1.010892e+001
1.013889e+001
1.016800e+001
1.019607e+001
1.022294e+001
1.024843e+001
1.027239e+001
1.029467e+001
1.031513e+001
1.033365e+001
1.035011e+001
1.036442e+001
1.037647e+001
1.038621e+001
1.039357e+001
1.039849e+001
1.040097e+001
1.040097e+001
1.039849e+001
1.039357e+001
1.038621e+001
1.037647e+001
1.036442e+001
1.035011e+001
1.033365e+001
1.031513e+001
1.029467e+001
1.027239e+001
1.024843e+001
1.022294e+001
1.019607e+001
1.016800e+001
1.013889e+001
1.010892e+001
1.007828e+001
1.004716e+001
1.001575e+001
1.001707e+001
1.005110e+001
1.008482e+001
1.011801e+001
1.015048e+001
1.018202e+001
1.021244e+001
1.024155e+001
1.026916e+001
1.029512e+001
1.031926e+001
1.034143e+001
1.036150e+001
1.037934e+001
1.039484e+001
1.040790e+001
1.041845e+001
1.042642e+001
1.043176e+001
1.043444e+001
1.043444e+001
1.043176e+001
1.042642e+001
1.041845e+001
1.040790e+001
1.039484e+001
1.037934e+001
1.036150e+001
1.034143e+001
1.031926e+001
1.029512e+001
1.026916e+001
1.024155e+001
1.021244e+001
1.018202e+001
1.015048e+001
1.011801e+001
1.008482e+001
1.005110e+001
1.001707e+001
1.001849e+001
1.005535e+001
1.009188e+001
1.012783e+001
1.016300e+001
1.019717e+001
1.023012e+001
1.026165e+001
1.029156e+001
1.031968e+001
1.034583e+001
1.036984e+001
1.039158e+001
1.041090e+001
1.042769e+001
1.044184e+001
1.045327e+001
1.046190e+001
1.046769e+001
1.047059e+001
1.047059e+001
1.046769e+001
1.046190e+001
1.045327e+001
1.044184e+001
1.042769e+001
1.041090e+001
1.039158e+001
1.036984e+001
1.034583e+001
1.031968e+001
1.029156e+001
1.026165e+001
1.023012e+001
1.019717e+001
1.016300e+001
1.012783e+001
1.009188e+001
1.005535e+001
1.001849e+001
1.002002e+001
1.005995e+001
1.009950e+001
1.013844e+001
1.017653e+001
1.021353e+001
1.024921e+001
1.028336e+001
1.031576e+001
1.034621e+001
1.037453e+001
1.040054e+001
1.042407e+001
1.044500e+001
1.046318e+001
1.047851e+001
1.049088e+001
1.050023e+001
1.050649e+001
1.050964e+001
1.050964e+001
1.050649e+001
1.050023e+001
1.049088e+001
1.047851e+001
1.046318e+001
1.044500e+001
1.042407e+001
1.040054e+001
1.037453e+001
1.034621e+001
1.031576e+001
1.028336e+001
1.024921e+001
1.021353e+001
1.017653e+001
1.013844e+001
1.009950e+001
1.005995e+001
1.002002e+001
1.002168e+001
1.006491e+001
1.010774e+001
1.014990e+001
1.019115e+001
1.023121e+001
1.026984e+001
1.030682e+001
1.034190e+001
1.037487e+001
1.040553e+001
1.043370e+001
1.045918e+001
1.048184e+001
1.050153e+001
1.051812e+001
1.053152e+001
1.054164e+001
1.054843e+001
1.055183e+001
1.055183e+001
1.054843e+001
1.054164e+001
1.053152e+001
1.051812e+001
1.050153e+001
1.048184e+001
1.045918e+001
1.043370e+001
1.040553e+001
1.037487e+001
1.034190e+001
1.030682e+001
1.026984e+001
1.023121e+001
1.019115e+001
1.014990e+001
1.010774e+001
1.006491e+001
1.002168e+001
1.002347e+001
1.007027e+001
1.011664e+001
1.016229e+001
1.020694e+001
1.025031e+001
1.029214e+001
1.033217e+001
1.037015e+001
1.040585e+001
1.043904e+001
1.046953e+001
1.049712e+001
1.052165e+001
1.054297e+001
1.056093e+001
1.057544e+001
1.058640e+001
1.059374e+001
1.059742e+001
1.059742e+001
1.059374e+001
1.058640e+001
1.057544e+001
1.056093e+001
1.054297e+001
1.052165e+001
1.049712e+001
1.046953e+001
1.043904e+001
1.040585e+001
1.037015e+001
1.033217e+001
1.029214e+001
1.025031e+001
1.020694e+001
1.016229e+001
1.011664e+001
1.007027e+001
1.002347e+001
1.002541e+001
1.007607e+001
1.012626e+001
1.017568e+001
1.022401e+001
1.027096e+001
1.031624e+001
1.035957e+001
1.040068e+001
1.043932e+001
1.047526e+001
1.050826e+001
1.053813e+001
1.056468e+001
1.058775e+001
1.060720e+001
1.062290e+001
1.063477e+001
1.064272e+001
1.064670e+001
1.064670e+001
1.064272e+001
1.063477e+001
1.062290e+001
1.060720e+001
1.058775e+001
1.056468e+001
1.053813e+001
1.050826e+001
1.047526e+001
1.043932e+001
1.040068e+001
1.035957e+001
1.031624e+001
1.027096e+001
1.022401e+001
1.017568e+001
1.012626e+001
1.007607e+001
1.002541e+001
1.002750e+001
1.008234e+001
1.013666e+001
1.019015e+001
1.024246e+001
1.029327e+001
1.034228e+001
1.038918e+001
1.043368e+001
1.047551e+001
1.051440e+001
1.055012e+001
1.058245e+001
1.061119e+001
1.063616e+001
1.065721e+001
1.067421e+001
1.068705e+001
1.069565e+001
1.069997e+001
1.069997e+001
1.069565e+001
1.068705e+001
1.067421e+001
1.065721e+001
1.063616e+001
1.061119e+001
1.058245e+001
1.055012e+001
1.051440e+001
1.047551e+001
1.043368e+001
1.038918e+001
1.034228e+001
1.029327e+001
1.024246e+001
1.019015e+001
1.013666e+001
1.008234e+001
1.002750e+001
1.002976e+001
1.008911e+001
1.014790e+001
1.020579e+001
1.026240e+001
1.031740e+001
1.037044e+001
1.042120e+001
1.046936e+001
1.051462e+001
1.055671e+001
1.059538e+001
1.063037e+001
1.066147e+001
1.068849e+001
1.071127e+001
1.072967e+001
1.074357e+001
1.075288e+001
1.075755e+001
1.075755e+001
1.075288e+001
1.074357e+001
1.072967e+001
1.071127e+001
1.068849e+001
1.066147e+001
1.063037e+001
1.059538e+001
1.055671e+001
1.051462e+001
1.046936e+001
1.042120e+001
1.037044e+001
1.031740e+001
1.026240e+001
1.020579e+001
1.014790e+001
1.008911e+001
1.002976e+001
1.003221e+001
1.009643e+001
1.016006e+001
1.022270e+001
1.028397e+001
1.034348e+001
1.040088e+001
1.045581e+001
1.050793e+001
1.055691e+001
1.060246e+001
1.064430e+001
1.068217e+001
1.071583e+001
1.074507e+001
1.076972e+001
1.078963e+001
1.080467e+001
1.081475e+001
1.081980e+001
1.081980e+001
1.081475e+001
1.080467e+001
1.078963e+001
1.076972e+001
1.074507e+001
1.071583e+001
1.068217e+001
1.064430e+001
1.060246e+001
1.055691e+001
1.050793e+001
1.045581e+001
1.040088e+001
1.034348e+001
1.028397e+001
1.022270e+001
1.016006e+001
1.009643e+001
1.003221e+001
1.003485e+001
1.010435e+001
1.017320e+001
1.024098e+001
1.030728e+001
1.037168e+001
1.043379e+001
1.049323e+001
1.054963e+001
1.060263e+001
1.065193e+001
1.069720e+001
1.073817e+001
1.077459e+001
1.080624e+001
1.083292e+001
1.085446e+001
1.087073e+001
1.088164e+001
1.088711e+001
1.088711e+001
1.088164e+001
1.087073e+001
1.085446e+001
1.083292e+001
1.080624e+001
1.077459e+001
1.073817e+001
1.069720e+001
1.065193e+001
1.060263e+001
1.054963e+001
1.049323e+001
1.043379e+001
1.037168e+001
1.030728e+001
1.024098e+001
1.017320e+001
1.010435e+001
1.003485e+001
1.003771e+001
1.011291e+001
1.018741e+001
1.026075e+001
1.033249e+001
1.040217e+001
1.046938e+001
1.053369e+001
1.059472e+001
1.065207e+001
1.070541e+001
1.075439e+001
1.079873e+001
1.083814e+001
1.087238e+001
1.090125e+001
1.092456e+001
1.094216e+001
1.095396e+001
1.095988e+001
1.095988e+001
1.095396e+001
1.094216e+001
1.092456e+001
1.090125e+001
1.087238e+001
1.083814e+001
1.079873e+001
1.075439e+001
1.070541e+001
1.065207e+001
1.059472e+001
1.053369e+001
1.046938e+001
1.040217e+001
1.033249e+001
1.026075e+001
1.018741e+001
1.011291e+001
1.003771e+001
