# vtk DataFile Version 3.0
steady_diffusion_2D
ASCII
DATASET STRUCTURED_POINTS
DIMENSIONS 80 80 1
ORIGIN 0.0 0.0 0.0
SPACING 0.0125 0.0125 1.0
POINT_DATA 6400
SCALARS Temperature double 1
LOOKUP_TABLE default
1.000003e+001
1.000010e+001
1.000017e+001
1.000023e+001
1.000030e+001
1.000036e+001
1.000043e+001
1.000049e+001
1.000056e+001
1.000062e+001
1.000068e+001
1.000074e+001
1.000080e+001
1.000086e+001
1.000092e+001
1.000097e+001
1.000102e+001
1.000108e+001
1.000113e+001
1.000118e+001
1.000122e+001
1.000127e+001
1.000131e+001
1.000135e+001
1.000139e+001
1.000143e+001
1.000146e+001
1.000150e+001
1.000153e+001
1.000156e+001
1.000158e+001
1.000160e+001
1.000162e+001
1.000164e+001
1.000166e+001
1.000167e+001
1.000168e+001
1.000169e+001
1.000169e+001
1.000170e+001
1.000170e+001
1.000169e+001
1.000169e+001
1.000168e+001
1.000167e+001
1.000166e+001
1.000164e+001
1.000162e+001
1.000160e+001
1.000158e+001
1.000156e+001
1.000153e+001
1.000150e+001
1.000146e+001
1.000143e+001
1.000139e+001
1.000135e+001
1.000131e+001
1.000127e+001
1.000122e+001
1.000118e+001
1.000113e+001
1.000108e+001
1.000102e+001
1.000097e+001
1.000092e+001
1.000086e+001
1.000080e+001
1.000074e+001
1.000068e+001
1.000062e+001
1.000056e+001
1.000049e+001
1.000043e+001
1.000036e+001
1.000030e+001
1.000023e+001
1.000017e+001
1.000010e+001
1.000003e+001
1.000010e+001
1.000030e+001
1.000050e+001
1.000070e+001
1.000090e+001
1.000109e+001
1.000129e+001
1.000148e+001
1.000167e+001
1.000186e+001
1.000204e+001
1.000222e+001
1.000240e+001
1.000258e+001
1.000275e+001
1.000291e+001
1.000307e+001
1.000323e+001
1.000338e+001
1.000353e+001
1.000367e+001
1.000381e+001
1.000394e+001
1.000406e+001
1.000418e+001
1.000429e+001
1.000440e+001
1.000449e+001
1.000458e+001
1.000467e+001
1.000474e+001
1.000481e+001
1.000488e+001
1.000493e+001
1.000498e+001
1.000502e+001
1.000505e+001
1.000507e+001
1.000509e+001
1.000509e+001
1.000509e+001
1.000509e+001
1.000507e+001
1.000505e+001
1.000502e+001
1.000498e+001
1.000493e+001
1.000488e+001
1.000481e+001
1.000474e+001
1.000467e+001
1.000458e+001
1.000449e+001
1.000440e+001
1.000429e+001
1.000418e+001
1.000406e+001
1.000394e+001
1.000381e+001
1.000367e+001
1.000353e+001
1.000338e+001
1.000323e+001
1.000307e+001
1.000291e+001
1.000275e+001
1.000258e+001
1.000240e+001
1.000222e+001
1.000204e+001
1.000186e+001
1.000167e+001
1.000148e+001
1.000129e+001
1.000109e+001
1.000090e+001
1.000070e+001
1.000050e+001
1.000030e+001
1.000010e+001
1.000017e+001
1.000050e+001
1.000083e+001
1.000116e+001
1.000149e+001
1.000182e+001
1.000215e+001
1.000247e+001
1.000278e+001
1.000310e+001
1.000341e+001
1.000371e+001
1.000401e+001
1.000430e+001
1.000458e+001
1.000486e+001
1.000513e+001
1.000539e+001
1.000565e+001
1.000589e+001
1.000613e+001
1.000635e+001
1.000657e+001
1.000678e+001
1.000697e+001
1.000716e+001
1.000733e+001
1.000750e+001
1.000765e+001
1.000779e+001
1.000792e+001
1.000803e+001
1.000813e+001
1.000822e+001
1.000830e+001
1.000837e+001
1.000842e+001
1.000846e+001
1.000849e+001
1.000850e+001
1.000850e+001
1.000849e+001
1.000846e+001
1.000842e+001
1.000837e+001
1.000830e+001
1.000822e+001
1.000813e+001
1.000803e+001
1.000792e+001
1.000779e+001
1.000765e+001
1.000750e+001
1.000733e+001
1.000716e+001
1.000697e+001
1.000678e+001
1.000657e+001
1.000635e+001
1.000613e+001
1.000589e+001
1.000565e+001
1.000539e+001
1.000513e+001
1.000486e+001
1.000458e+001
1.000430e+001
1.000401e+001
1.000371e+001
1.000341e+001
1.000310e+001
1.000278e+001
1.000247e+001
1.000215e+001
1.000182e+001
1.000149e+001
1.000116e+001
1.000083e+001
1.000050e+001
1.000017e+001
1.000023e+001
1.000070e+001
1.000117e+001
1.000163e+001
1.000210e+001
1.000255e+001
1.000301e+001
1.000346e+001
1.000390e+001
1.000434e+001
1.000478e+001
1.000520e+001
1.000562e+001
1.000603e+001
1.000643e+001
1.000681e+001
1.000719e+001
1.000756e+001
1.000792e+001
1.000826e+001
1.000859e+001
1.000891e+001
1.000921e+001
1.000950e+001
1.000978e+001
1.001004e+001
1.001028e+001
1.001051e+001
1.001072e+001
1.001092e+001
1.001110e+001
1.001126e+001
1.001141e+001
1.001153e+001
1.001164e+001
1.001173e+001
1.001181e+001
1.001186e+001
1.001190e+001
1.001192e+001
1.001192e+001
1.001190e+001
1.001186e+001
1.001181e+001
1.001173e+001
1.001164e+001
1.001153e+001
1.001141e+001
1.001126e+001
1.001110e+001
1.001092e+001
1.001072e+001
1.001051e+001
1.001028e+001
1.001004e+001
1.000978e+001
1.000950e+001
1.000921e+001
1.000891e+001
1.000859e+001
1.000826e+001
1.000792e+001
1.000756e+001
1.000719e+001
1.000681e+001
1.000643e+001
1.000603e+001
1.000562e+001
1.000520e+001
1.000478e+001
1.000434e+001
1.000390e+001
1.000346e+001
1.000301e+001
1.000255e+001
1.000210e+001
1.000163e+001
1.000117e+001
1.000070e+001
1.000023e+001
1.000030e+001
1.000090e+001
1.000151e+001
1.000210e+001
1.000270e+001
1.000329e+001
1.000388e+001
1.000446e+001
1.000503e+001
1.000560e+001
1.000615e+001
1.000670e+001
1.000724e+001
1.000776e+001
1.000828e+001
1.000878e+001
1.000927e+001
1.000974e+001
1.001020e+001
1.001064e+001
1.001107e+001
1.001148e+001
1.001187e+001
1.001224e+001
1.001260e+001
1.001293e+001
1.001325e+001
1.001354e+001
1.001382e+001
1.001407e+001
1.001430e+001
1.001451e+001
1.001469e+001
1.001486e+001
1.001500e+001
1.001512e+001
1.001521e+001
1.001528e+001
1.001533e+001
1.001535e+001
1.001535e+001
1.001533e+001
1.001528e+001
1.001521e+001
1.001512e+001
1.001500e+001
1.001486e+001
1.001469e+001
1.001451e+001
1.001430e+001
1.001407e+001
1.001382e+001
1.001354e+001
1.001325e+001
1.001293e+001
1.001260e+001
1.001224e+001
1.001187e+001
1.001148e+001
1.001107e+001
1.001064e+001
1.001020e+001
1.000974e+001
1.000927e+001
1.000878e+001
1.000828e+001
1.000776e+001
1.000724e+001
1.000670e+001
1.000615e+001
1.000560e+001
1.000503e+001
1.000446e+001
1.000388e+001
1.000329e+001
1.000270e+001
1.000210e+001
1.000151e+001
1.000090e+001
1.000030e+001
1.000037e+001
1.000111e+001
1.000184e+001
1.000258e+001
1.000331e+001
1.000403e+001
1.000475e+001
1.000546e+001
1.000616e+001
1.000686e+001
1.000754e+001
1.000821e+001
1.000887e+001
1.000951e+001
1.001014e+001
1.001076e+001
1.001136e+001
1.001194e+001
1.001250e+001
1.001304e+001
1.001356e+001
1.001406e+001
1.001454e+001
1.001500e+001
1.001544e+001
1.001585e+001
1.001623e+001
1.001659e+001
1.001693e+001
1.001724e+001
1.001752e+001
1.001778e+001
1.001801e+001
1.001821e+001
1.001838e+001
1.001852e+001
1.001864e+001
1.001873e+001
1.001878e+001
1.001881e+001
1.001881e+001
1.001878e+001
1.001873e+001
1.001864e+001
1.001852e+001
1.001838e+001
1.001821e+001
1.001801e+001
1.001778e+001
1.001752e+001
1.001724e+001
1.001693e+001
1.001659e+001
1.001623e+001
1.001585e+001
1.001544e+001
1.001500e+001
1.001454e+001
1.001406e+001
1.001356e+001
1.001304e+001
1.001250e+001
1.001194e+001
1.001136e+001
1.001076e+001
1.001014e+001
1.000951e+001
1.000887e+001
1.000821e+001
1.000754e+001
1.000686e+001
1.000616e+001
1.000546e+001
1.000475e+001
1.000403e+001
1.000331e+001
1.000258e+001
1.000184e+001
1.000111e+001
1.000037e+001
1.000044e+001
1.000131e+001
1.000219e+001
1.000306e+001
1.000392e+001
1.000478e+001
1.000563e+001
1.000647e+001
1.000731e+001
1.000813e+001
1.000894e+001
1.000973e+001
1.001051e+001
1.001128e+001
1.001203e+001
1.001275e+001
1.001346e+001
1.001415e+001
1.001482e+001
1.001546e+001
1.001608e+001
1.001667e+001
1.001724e+001
1.001778e+001
1.001830e+001
1.001879e+001
1.001924e+001
1.001967e+001
1.002007e+001
1.002044e+001
1.002077e+001
1.002107e+001
1.002135e+001
1.002158e+001
1.002179e+001
1.002196e+001
1.002210e+001
1.002220e+001
1.002227e+001
1.002230e+001
1.002230e+001
1.002227e+001
1.002220e+001
1.002210e+001
1.002196e+001
1.002179e+001
1.002158e+001
1.002135e+001
1.002107e+001
1.002077e+001
1.002044e+001
1.002007e+001
1.001967e+001
1.001924e+001
1.001879e+001
1.001830e+001
1.001778e+001
1.001724e+001
1.001667e+001
1.001608e+001
1.001546e+001
1.001482e+001
1.001415e+001
1.001346e+001
1.001275e+001
1.001203e+001
1.001128e+001
1.001051e+001
1.000973e+001
1.000894e+001
1.000813e+001
1.000731e+001
1.000647e+001
1.000563e+001
1.000478e+001
1.000392e+001
1.000306e+001
1.000219e+001
1.000131e+001
1.000044e+001
1.000051e+001
1.000152e+001
1.000253e+001
1.000354e+001
1.000454e+001
1.000554e+001
1.000652e+001
1.000750e+001
1.000846e+001
1.000941e+001
1.001035e+001
1.001127e+001
1.001218e+001
1.001306e+001
1.001393e+001
1.001477e+001
1.001559e+001
1.001639e+001
1.001716e+001
1.001790e+001
1.001862e+001
1.001931e+001
1.001997e+001
1.002059e+001
1.002119e+001
1.002175e+001
1.002228e+001
1.002278e+001
1.002324e+001
1.002366e+001
1.002405e+001
1.002440e+001
1.002472e+001
1.002499e+001
1.002523e+001
1.002543e+001
1.002559e+001
1.002571e+001
1.002578e+001
1.002582e+001
1.002582e+001
1.002578e+001
1.002571e+001
1.002559e+001
1.002543e+001
1.002523e+001
1.002499e+001
1.002472e+001
1.002440e+001
1.002405e+001
1.002366e+001
1.002324e+001
1.002278e+001
1.002228e+001
1.002175e+001
1.002119e+001
1.002059e+001
1.001997e+001
1.001931e+001
1.001862e+001
1.001790e+001
1.001716e+001
1.001639e+001
1.001559e+001
1.001477e+001
1.001393e+001
1.001306e+001
1.001218e+001
1.001127e+001
1.001035e+001
1.000941e+001
1.000846e+001
1.000750e+001
1.000652e+001
1.000554e+001
1.000454e+001
1.000354e+001
1.000253e+001
1.000152e+001
1.000051e+001
1.000058e+001
1.000173e+001
1.000288e+001
1.000403e+001
1.000517e+001
1.000630e+001
1.000742e+001
1.000853e+001
1.000963e+001
1.001071e+001
1.001178e+001
1.001283e+001
1.001386e+001
1.001486e+001
1.001585e+001
1.001681e+001
1.001774e+001
1.001865e+001
1.001952e+001
1.002037e+001
1.002119e+001
1.002197e+001
1.002272e+001
1.002344e+001
1.002411e+001
1.002476e+001
1.002536e+001
1.002592e+001
1.002645e+001
1.002693e+001
1.002737e+001
1.002777e+001
1.002813e+001
1.002844e+001
1.002871e+001
1.002894e+001
1.002912e+001
1.002925e+001
1.002934e+001
1.002939e+001
1.002939e+001
1.002934e+001
1.002925e+001
1.002912e+001
1.002894e+001
1.002871e+001
1.002844e+001
1.002813e+001
1.002777e+001
1.002737e+001
1.002693e+001
1.002645e+001
1.002592e+001
1.002536e+001
1.002476e+001
1.002411e+001
1.002344e+001
1.002272e+001
1.002197e+001
1.002119e+001
1.002037e+001
1.001952e+001
1.001865e+001
1.001774e+001
1.001681e+001
1.001585e+001
1.001486e+001
1.001386e+001
1.001283e+001
1.001178e+001
1.001071e+001
1.000963e+001
1.000853e+001
1.000742e+001
1.000630e+001
1.000517e+001
1.000403e+001
1.000288e+001
1.000173e+001
1.000058e+001
1.000065e+001
1.000194e+001
1.000323e+001
1.000452e+001
1.000580e+001
1.000707e+001
1.000833e+001
1.000958e+001
1.001081e+001
1.001203e+001
1.001323e+001
1.001440e+001
1.001556e+001
1.001669e+001
1.001779e+001
1.001887e+001
1.001992e+001
1.002094e+001
1.002192e+001
1.002287e+001
1.002379e+001
1.002467e+001
1.002551e+001
1.002631e+001
1.002708e+001
1.002780e+001
1.002847e+001
1.002911e+001
1.002969e+001
1.003024e+001
1.003073e+001
1.003118e+001
1.003158e+001
1.003193e+001
1.003224e+001
1.003249e+001
1.003269e+001
1.003284e+001
1.003295e+001
1.003300e+001
1.003300e+001
1.003295e+001
1.003284e+001
1.003269e+001
1.003249e+001
1.003224e+001
1.003193e+001
1.003158e+001
1.003118e+001
1.003073e+001
1.003024e+001
1.002969e+001
1.002911e+001
1.002847e+001
1.002780e+001
1.002708e+001
1.002631e+001
1.002551e+001
1.002467e+001
1.002379e+001
1.002287e+001
1.002192e+001
1.002094e+001
1.001992e+001
1.001887e+001
1.001779e+001
1.001669e+001
1.001556e+001
1.001440e+001
1.001323e+001
1.001203e+001
1.001081e+001
1.000958e+001
1.000833e+001
1.000707e+001
1.000580e+001
1.000452e+001
1.000323e+001
1.000194e+001
1.000065e+001
1.000072e+001
1.000216e+001
1.000359e+001
1.000502e+001
1.000645e+001
1.000786e+001
1.000926e+001
1.001064e+001
1.001201e+001
1.001336e+001
1.001469e+001
1.001600e+001
1.001728e+001
1.001854e+001
1.001977e+001
1.002096e+001
1.002213e+001
1.002326e+001
1.002435e+001
1.002541e+001
1.002643e+001
1.002741e+001
1.002834e+001
1.002923e+001
1.003008e+001
1.003088e+001
1.003163e+001
1.003234e+001
1.003299e+001
1.003359e+001
1.003414e+001
1.003464e+001
1.003509e+001
1.003548e+001
1.003581e+001
1.003609e+001
1.003632e+001
1.003649e+001
1.003660e+001
1.003666e+001
1.003666e+001
1.003660e+001
1.003649e+001
1.003632e+001
1.003609e+001
1.003581e+001
1.003548e+001
1.003509e+001
1.003464e+001
1.003414e+001
1.003359e+001
1.003299e+001
1.003234e+001
1.003163e+001
1.003088e+001
1.003008e+001
1.002923e+001
1.002834e+001
1.002741e+001
1.002643e+001
1.002541e+001
1.002435e+001
1.002326e+001
1.002213e+001
1.002096e+001
1.001977e+001
1.001854e+001
1.001728e+001
1.001600e+001
1.001469e+001
1.001336e+001
1.001201e+001
1.001064e+001
1.000926e+001
1.000786e+001
1.000645e+001
1.000502e+001
1.000359e+001
1.000216e+001
1.000072e+001
1.000079e+001
1.000238e+001
1.000396e+001
1.000553e+001
1.000710e+001
1.000865e+001
1.001020e+001
1.001172e+001
1.001323e+001
1.001472e+001
1.001618e+001
1.001762e+001
1.001904e+001
1.002042e+001
1.002177e+001
1.002309e+001
1.002437e+001
1.002562e+001
1.002682e+001
1.002799e+001
1.002911e+001
1.003019e+001
1.003122e+001
1.003220e+001
1.003313e+001
1.003401e+001
1.003484e+001
1.003561e+001
1.003633e+001
1.003700e+001
1.003760e+001
1.003815e+001
1.003864e+001
1.003907e+001
1.003944e+001
1.003975e+001
1.004000e+001
1.004019e+001
1.004031e+001
1.004037e+001
1.004037e+001
1.004031e+001
1.004019e+001
1.004000e+001
1.003975e+001
1.003944e+001
1.003907e+001
1.003864e+001
1.003815e+001
1.003760e+001
1.003700e+001
1.003633e+001
1.003561e+001
1.003484e+001
1.003401e+001
1.003313e+001
1.003220e+001
1.003122e+001
1.003019e+001
1.002911e+001
1.002799e+001
1.002682e+001
1.002562e+001
1.002437e+001
1.002309e+001
1.002177e+001
1.002042e+001
1.001904e+001
1.001762e+001
1.001618e+001
1.001472e+001
1.001323e+001
1.001172e+001
1.001020e+001
1.000865e+001
1.000710e+001
1.000553e+001
1.000396e+001
1.000238e+001
1.000079e+001
1.000087e+001
1.000260e+001
1.000433e+001
1.000605e+001
1.000776e+001
1.000946e+001
1.001115e+001
1.001282e+001
1.001447e+001
1.001610e+001
1.001770e+001
1.001927e+001
1.002082e+001
1.002233e+001
1.002381e+001
1.002525e+001
1.002665e+001
1.002802e+001
1.002933e+001
1.003061e+001
1.003183e+001
1.003301e+001
1.003414e+001
1.003521e+001
1.003623e+001
1.003719e+001
1.003810e+001
1.003895e+001
1.003973e+001
1.004046e+001
1.004112e+001
1.004172e+001
1.004226e+001
1.004273e+001
1.004314e+001
1.004347e+001
1.004375e+001
1.004395e+001
1.004409e+001
1.004415e+001
1.004415e+001
1.004409e+001
1.004395e+001
1.004375e+001
1.004347e+001
1.004314e+001
1.004273e+001
1.004226e+001
1.004172e+001
1.004112e+001
1.004046e+001
1.003973e+001
1.003895e+001
1.003810e+001
1.003719e+001
1.003623e+001
1.003521e+001
1.003414e+001
1.003301e+001
1.003183e+001
1.003061e+001
1.002933e+001
1.002802e+001
1.002665e+001
1.002525e+001
1.002381e+001
1.002233e+001
1.002082e+001
1.001927e+001
1.001770e+001
1.001610e+001
1.001447e+001
1.001282e+001
1.001115e+001
1.000946e+001
1.000776e+001
1.000605e+001
1.000433e+001
1.000260e+001
1.000087e+001
1.000094e+001
1.000283e+001
1.000471e+001
1.000658e+001
1.000844e+001
1.001029e+001
1.001212e+001
1.001394e+001
1.001573e+001
1.001750e+001
1.001924e+001
1.002095e+001
1.002263e+001
1.002428e+001
1.002588e+001
1.002745e+001
1.002898e+001
1.003046e+001
1.003189e+001
1.003328e+001
1.003461e+001
1.003589e+001
1.003711e+001
1.003828e+001
1.003939e+001
1.004043e+001
1.004142e+001
1.004234e+001
1.004320e+001
1.004399e+001
1.004471e+001
1.004536e+001
1.004594e+001
1.004645e+001
1.004689e+001
1.004726e+001
1.004756e+001
1.004778e+001
1.004793e+001
1.004800e+001
1.004800e+001
1.004793e+001
1.004778e+001
1.004756e+001
1.004726e+001
1.004689e+001
1.004645e+001
1.004594e+001
1.004536e+001
1.004471e+001
1.004399e+001
1.004320e+001
1.004234e+001
1.004142e+001
1.004043e+001
1.003939e+001
1.003828e+001
1.003711e+001
1.003589e+001
1.003461e+001
1.003328e+001
1.003189e+001
1.003046e+001
1.002898e+001
1.002745e+001
1.002588e+001
1.002428e+001
1.002263e+001
1.002095e+001
1.001924e+001
1.001750e+001
1.001573e+001
1.001394e+001
1.001212e+001
1.001029e+001
1.000844e+001
1.000658e+001
1.000471e+001
1.000283e+001
1.000094e+001
1.000102e+001
1.000306e+001
1.000509e+001
1.000712e+001
1.000913e+001
1.001113e+001
1.001311e+001
1.001508e+001
1.001701e+001
1.001893e+001
1.002081e+001
1.002266e+001
1.002448e+001
1.002626e+001
1.002800e+001
1.002969e+001
1.003134e+001
1.003295e+001
1.003450e+001
1.003599e+001
1.003744e+001
1.003882e+001
1.004014e+001
1.004141e+001
1.004261e+001
1.004374e+001
1.004480e+001
1.004580e+001
1.004673e+001
1.004758e+001
1.004836e+001
1.004907e+001
1.004970e+001
1.005025e+001
1.005073e+001
1.005112e+001
1.005144e+001
1.005168e+001
1.005184e+001
1.005192e+001
1.005192e+001
1.005184e+001
1.005168e+001
1.005144e+001
1.005112e+001
1.005073e+001
1.005025e+001
1.004970e+001
1.004907e+001
1.004836e+001
1.004758e+001
1.004673e+001
1.004580e+001
1.004480e+001
1.004374e+001
1.004261e+001
1.004141e+001
1.004014e+001
1.003882e+001
1.003744e+001
1.003599e+001
1.003450e+001
1.003295e+001
1.003134e+001
1.002969e+001
1.002800e+001
1.002626e+001
1.002448e+001
1.002266e+001
1.002081e+001
1.001893e+001
1.001701e+001
1.001508e+001
1.001311e+001
1.001113e+001
1.000913e+001
1.000712e+001
1.000509e+001
1.000306e+001
1.000102e+001
1.000110e+001
1.000329e+001
1.000548e+001
1.000766e+001
1.000983e+001
1.001199e+001
1.001412e+001
1.001624e+001
1.001833e+001
1.002039e+001
1.002242e+001
1.002441e+001
1.002637e+001
1.002828e+001
1.003016e+001
1.003198e+001
1.003376e+001
1.003549e+001
1.003716e+001
1.003877e+001
1.004032e+001
1.004181e+001
1.004324e+001
1.004460e+001
1.004589e+001
1.004711e+001
1.004826e+001
1.004933e+001
1.005033e+001
1.005125e+001
1.005209e+001
1.005285e+001
1.005353e+001
1.005412e+001
1.005464e+001
1.005506e+001
1.005541e+001
1.005567e+001
1.005584e+001
1.005592e+001
1.005592e+001
1.005584e+001
1.005567e+001
1.005541e+001
1.005506e+001
1.005464e+001
1.005412e+001
1.005353e+001
1.005285e+001
1.005209e+001
1.005125e+001
1.005033e+001
1.004933e+001
1.004826e+001
1.004711e+001
1.004589e+001
1.004460e+001
1.004324e+001
1.004181e+001
1.004032e+001
1.003877e+001
1.003716e+001
1.003549e+001
1.003376e+001
1.003198e+001
1.003016e+001
1.002828e+001
1.002637e+001
1.002441e+001
1.002242e+001
1.002039e+001
1.001833e+001
1.001624e+001
1.001412e+001
1.001199e+001
1.000983e+001
1.000766e+001
1.000548e+001
1.000329e+001
1.000110e+001
1.000118e+001
1.000353e+001
1.000588e+001
1.000822e+001
1.001055e+001
1.001286e+001
1.001516e+001
1.001742e+001
1.001967e+001
1.002188e+001
1.002405e+001
1.002620e+001
1.002830e+001
1.003035e+001
1.003236e+001
1.003432e+001
1.003623e+001
1.003808e+001
1.003987e+001
1.004160e+001
1.004327e+001
1.004487e+001
1.004640e+001
1.004786e+001
1.004924e+001
1.005055e+001
1.005179e+001
1.005294e+001
1.005401e+001
1.005499e+001
1.005590e+001
1.005671e+001
1.005744e+001
1.005808e+001
1.005863e+001
1.005909e+001
1.005946e+001
1.005974e+001
1.005992e+001
1.006001e+001
1.006001e+001
1.005992e+001
1.005974e+001
1.005946e+001
1.005909e+001
1.005863e+001
1.005808e+001
1.005744e+001
1.005671e+001
1.005590e+001
1.005499e+001
1.005401e+001
1.005294e+001
1.005179e+001
1.005055e+001
1.004924e+001
1.004786e+001
1.004640e+001
1.004487e+001
1.004327e+001
1.004160e+001
1.003987e+001
1.003808e+001
1.003623e+001
1.003432e+001
1.003236e+001
1.003035e+001
1.002830e+001
1.002620e+001
1.002405e+001
1.002188e+001
1.001967e+001
1.001742e+001
1.001516e+001
1.001286e+001
1.001055e+001
1.000822e+001
1.000588e+001
1.000353e+001
1.000118e+001
1.000126e+001
1.000378e+001
1.000629e+001
1.000880e+001
1.001129e+001
1.001376e+001
1.001621e+001
1.001864e+001
1.002104e+001
1.002340e+001
1.002573e+001
1.002802e+001
1.003027e+001
1.003247e+001
1.003462e+001
1.003671e+001
1.003875e+001
1.004073e+001
1.004265e+001
1.004450e+001
1.004628e+001
1.004800e+001
1.004963e+001
1.005119e+001
1.005268e+001
1.005408e+001
1.005539e+001
1.005663e+001
1.005777e+001
1.005883e+001
1.005979e+001
1.006066e+001
1.006144e+001
1.006213e+001
1.006272e+001
1.006321e+001
1.006360e+001
1.006390e+001
1.006410e+001
1.006419e+001
1.006419e+001
1.006410e+001
1.006390e+001
1.006360e+001
1.006321e+001
1.006272e+001
1.006213e+001
1.006144e+001
1.006066e+001
1.005979e+001
1.005883e+001
1.005777e+001
1.005663e+001
1.005539e+001
1.005408e+001
1.005268e+001
1.005119e+001
1.004963e+001
1.004800e+001
1.004628e+001
1.004450e+001
1.004265e+001
1.004073e+001
1.003875e+001
1.003671e+001
1.003462e+001
1.003247e+001
1.003027e+001
1.002802e+001
1.002573e+001
1.002340e+001
1.002104e+001
1.001864e+001
1.001621e+001
1.001376e+001
1.001129e+001
1.000880e+001
1.000629e+001
1.000378e+001
1.000126e+001
1.000134e+001
1.000403e+001
1.000671e+001
1.000938e+001
1.001204e+001
1.001468e+001
1.001729e+001
1.001988e+001
1.002244e+001
1.002496e+001
1.002745e+001
1.002989e+001
1.003229e+001
1.003463e+001
1.003692e+001
1.003916e+001
1.004134e+001
1.004345e+001
1.004549e+001
1.004747e+001
1.004937e+001
1.005120e+001
1.005294e+001
1.005461e+001
1.005619e+001
1.005768e+001
1.005909e+001
1.006040e+001
1.006162e+001
1.006275e+001
1.006378e+001
1.006471e+001
1.006554e+001
1.006627e+001
1.006690e+001
1.006742e+001
1.006784e+001
1.006816e+001
1.006837e+001
1.006848e+001
1.006848e+001
1.006837e+001
1.006816e+001
1.006784e+001
1.006742e+001
1.006690e+001
1.006627e+001
1.006554e+001
1.006471e+001
1.006378e+001
1.006275e+001
1.006162e+001
1.006040e+001
1.005909e+001
1.005768e+001
1.005619e+001
1.005461e+001
1.005294e+001
1.005120e+001
1.004937e+001
1.004747e+001
1.004549e+001
1.004345e+001
1.004134e+001
1.003916e+001
1.003692e+001
1.003463e+001
1.003229e+001
1.002989e+001
1.002745e+001
1.002496e+001
1.002244e+001
1.001988e+001
1.001729e+001
1.001468e+001
1.001204e+001
1.000938e+001
1.000671e+001
1.000403e+001
1.000134e+001
1.000143e+001
1.000429e+001
1.000714e+001
1.000998e+001
1.001281e+001
1.001562e+001
1.001840e+001
1.002115e+001
1.002388e+001
1.002656e+001
1.002921e+001
1.003180e+001
1.003435e+001
1.003685e+001
1.003929e+001
1.004167e+001
1.004398e+001
1.004623e+001
1.004841e+001
1.005051e+001
1.005253e+001
1.005448e+001
1.005633e+001
1.005811e+001
1.005979e+001
1.006138e+001
1.006287e+001
1.006427e+001
1.006557e+001
1.006677e+001
1.006786e+001
1.006885e+001
1.006974e+001
1.007051e+001
1.007118e+001
1.007174e+001
1.007219e+001
1.007253e+001
1.007275e+001
1.007286e+001
1.007286e+001
1.007275e+001
1.007253e+001
1.007219e+001
1.007174e+001
1.007118e+001
1.007051e+001
1.006974e+001
1.006885e+001
1.006786e+001
1.006677e+001
1.006557e+001
1.006427e+001
1.006287e+001
1.006138e+001
1.005979e+001
1.005811e+001
1.005633e+001
1.005448e+001
1.005253e+001
1.005051e+001
1.004841e+001
1.004623e+001
1.004398e+001
1.004167e+001
1.003929e+001
1.003685e+001
1.003435e+001
1.003180e+001
1.002921e+001
1.002656e+001
1.002388e+001
1.002115e+001
1.001840e+001
1.001562e+001
1.001281e+001
1.000998e+001
1.000714e+001
1.000429e+001
1.000143e+001
1.000152e+001
1.000456e+001
1.000758e+001
1.001060e+001
1.001360e+001
1.001658e+001
1.001954e+001
1.002246e+001
1.002535e+001
1.002820e+001
1.003101e+001
1.003377e+001
1.003647e+001
1.003913e+001
1.004172e+001
1.004424e+001
1.004670e+001
1.004909e+001
1.005140e+001
1.005363e+001
1.005578e+001
1.005784e+001
1.005981e+001
1.006169e+001
1.006348e+001
1.006517e+001
1.006676e+001
1.006824e+001
1.006962e+001
1.007089e+001
1.007205e+001
1.007311e+001
1.007404e+001
1.007487e+001
1.007558e+001
1.007617e+001
1.007665e+001
1.007700e+001
1.007724e+001
1.007736e+001
1.007736e+001
1.007724e+001
1.007700e+001
1.007665e+001
1.007617e+001
1.007558e+001
1.007487e+001
1.007404e+001
1.007311e+001
1.007205e+001
1.007089e+001
1.006962e+001
1.006824e+001
1.006676e+001
1.006517e+001
1.006348e+001
1.006169e+001
1.005981e+001
1.005784e+001
1.005578e+001
1.005363e+001
1.005140e+001
1.004909e+001
1.004670e+001
1.004424e+001
1.004172e+001
1.003913e+001
1.003647e+001
1.003377e+001
1.003101e+001
1.002820e+001
1.002535e+001
1.002246e+001
1.001954e+001
1.001658e+001
1.001360e+001
1.001060e+001
1.000758e+001
1.000456e+001
1.000152e+001
1.000161e+001
1.000483e+001
1.000804e+001
1.001123e+001
1.001441e+001
1.001757e+001
1.002070e+001
1.002380e+001
1.002686e+001
1.002989e+001
1.003286e+001
1.003578e+001
1.003865e+001
1.004146e+001
1.004421e+001
1.004688e+001
1.004949e+001
1.005202e+001
1.005447e+001
1.005683e+001
1.005911e+001
1.006129e+001
1.006338e+001
1.006538e+001
1.006727e+001
1.006906e+001
1.007074e+001
1.007231e+001
1.007378e+001
1.007512e+001
1.007636e+001
1.007747e+001
1.007847e+001
1.007934e+001
1.008009e+001
1.008072e+001
1.008122e+001
1.008160e+001
1.008185e+001
1.008198e+001
1.008198e+001
1.008185e+001
1.008160e+001
1.008122e+001
1.008072e+001
1.008009e+001
1.007934e+001
1.007847e+001
1.007747e+001
1.007636e+001
1.007512e+001
1.007378e+001
1.007231e+001
1.007074e+001
1.006906e+001
1.006727e+001
1.006538e+001
1.006338e+001
1.006129e+001
1.005911e+001
1.005683e+001
1.005447e+001
1.005202e+001
1.004949e+001
1.004688e+001
1.004421e+001
1.004146e+001
1.003865e+001
1.003578e+001
1.003286e+001
1.002989e+001
1.002686e+001
1.002380e+001
1.002070e+001
1.001757e+001
1.001441e+001
1.001123e+001
1.000804e+001
1.000483e+001
1.000161e+001
1.000170e+001
1.000511e+001
1.000850e+001
1.001188e+001
1.001525e+001
1.001859e+001
1.002190e+001
1.002518e+001
1.002842e+001
1.003162e+001
1.003476e+001
1.003786e+001
1.004089e+001
1.004386e+001
1.004677e+001
1.004960e+001
1.005235e+001
1.005503e+001
1.005762e+001
1.006012e+001
1.006253e+001
1.006484e+001
1.006705e+001
1.006916e+001
1.007116e+001
1.007306e+001
1.007484e+001
1.007650e+001
1.007805e+001
1.007947e+001
1.008078e+001
1.008196e+001
1.008301e+001
1.008393e+001
1.008473e+001
1.008539e+001
1.008592e+001
1.008633e+001
1.008659e+001
1.008673e+001
1.008673e+001
1.008659e+001
1.008633e+001
1.008592e+001
1.008539e+001
1.008473e+001
1.008393e+001
1.008301e+001
1.008196e+001
1.008078e+001
1.007947e+001
1.007805e+001
1.007650e+001
1.007484e+001
1.007306e+001
1.007116e+001
1.006916e+001
1.006705e+001
1.006484e+001
1.006253e+001
1.006012e+001
1.005762e+001
1.005503e+001
1.005235e+001
1.004960e+001
1.004677e+001
1.004386e+001
1.004089e+001
1.003786e+001
1.003476e+001
1.003162e+001
1.002842e+001
1.002518e+001
1.002190e+001
1.001859e+001
1.001525e+001
1.001188e+001
1.000850e+001
1.000511e+001
1.000170e+001
1.000180e+001
1.000539e+001
1.000898e+001
1.001255e+001
1.001611e+001
1.001964e+001
1.002313e+001
1.002660e+001
1.003002e+001
1.003339e+001
1.003672e+001
1.003999e+001
1.004319e+001
1.004633e+001
1.004940e+001
1.005239e+001
1.005530e+001
1.005813e+001
1.006086e+001
1.006350e+001
1.006605e+001
1.006849e+001
1.007083e+001
1.007305e+001
1.007517e+001
1.007717e+001
1.007905e+001
1.008080e+001
1.008244e+001
1.008394e+001
1.008532e+001
1.008657e+001
1.008768e+001
1.008865e+001
1.008949e+001
1.009020e+001
1.009076e+001
1.009118e+001
1.009146e+001
1.009161e+001
1.009161e+001
1.009146e+001
1.009118e+001
1.009076e+001
1.009020e+001
1.008949e+001
1.008865e+001
1.008768e+001
1.008657e+001
1.008532e+001
1.008394e+001
1.008244e+001
1.008080e+001
1.007905e+001
1.007717e+001
1.007517e+001
1.007305e+001
1.007083e+001
1.006849e+001
1.006605e+001
1.006350e+001
1.006086e+001
1.005813e+001
1.005530e+001
1.005239e+001
1.004940e+001
1.004633e+001
1.004319e+001
1.003999e+001
1.003672e+001
1.003339e+001
1.003002e+001
1.002660e+001
1.002313e+001
1.001964e+001
1.001611e+001
1.001255e+001
1.000898e+001
1.000539e+001
1.000180e+001
1.000190e+001
1.000569e+001
1.000947e+001
1.001324e+001
1.001699e+001
1.002071e+001
1.002440e+001
1.002805e+001
1.003166e+001
1.003522e+001
1.003873e+001
1.004218e+001
1.004556e+001
1.004887e+001
1.005211e+001
1.005526e+001
1.005833e+001
1.006131e+001
1.006420e+001
1.006698e+001
1.006967e+001
1.007224e+001
1.007471e+001
1.007706e+001
1.007929e+001
1.008140e+001
1.008338e+001
1.008523e+001
1.008696e+001
1.008855e+001
1.009000e+001
1.009131e+001
1.009248e+001
1.009351e+001
1.009440e+001
1.009514e+001
1.009573e+001
1.009618e+001
1.009648e+001
1.009663e+001
1.009663e+001
1.009648e+001
1.009618e+001
1.009573e+001
1.009514e+001
1.009440e+001
1.009351e+001
1.009248e+001
1.009131e+001
1.009000e+001
1.008855e+001
1.008696e+001
1.008523e+001
1.008338e+001
1.008140e+001
1.007929e+001
1.007706e+001
1.007471e+001
1.007224e+001
1.006967e+001
1.006698e+001
1.006420e+001
1.006131e+001
1.005833e+001
1.005526e+001
1.005211e+001
1.004887e+001
1.004556e+001
1.004218e+001
1.003873e+001
1.003522e+001
1.003166e+001
1.002805e+001
1.002440e+001
1.002071e+001
1.001699e+001
1.001324e+001
1.000947e+001
1.000569e+001
1.000190e+001
1.000200e+001
1.000599e+001
1.000998e+001
1.001395e+001
1.001790e+001
1.002182e+001
1.002571e+001
1.002956e+001
1.003336e+001
1.003711e+001
1.004080e+001
1.004443e+001
1.004800e+001
1.005148e+001
1.005489e+001
1.005822e+001
1.006145e+001
1.006459e+001
1.006763e+001
1.007057e+001
1.007340e+001
1.007611e+001
1.007871e+001
1.008118e+001
1.008353e+001
1.008575e+001
1.008784e+001
1.008980e+001
1.009161e+001
1.009328e+001
1.009481e+001
1.009620e+001
1.009743e+001
1.009852e+001
1.009945e+001
1.010023e+001
1.010086e+001
1.010133e+001
1.010164e+001
1.010180e+001
1.010180e+001
1.010164e+001
1.010133e+001
1.010086e+001
1.010023e+001
1.009945e+001
1.009852e+001
1.009743e+001
1.009620e+001
1.009481e+001
1.009328e+001
1.009161e+001
1.008980e+001
1.008784e+001
1.008575e+001
1.008353e+001
1.008118e+001
1.007871e+001
1.007611e+001
1.007340e+001
1.007057e+001
1.006763e+001
1.006459e+001
1.006145e+001
1.005822e+001
1.005489e+001
1.005148e+001
1.004800e+001
1.004443e+001
1.004080e+001
1.003711e+001
1.003336e+001
1.002956e+001
1.002571e+001
1.002182e+001
1.001790e+001
1.001395e+001
1.000998e+001
1.000599e+001
1.000200e+001
1.000210e+001
1.000631e+001
1.001050e+001
1.001468e+001
1.001884e+001
1.002296e+001
1.002705e+001
1.003110e+001
1.003510e+001
1.003905e+001
1.004294e+001
1.004676e+001
1.005051e+001
1.005418e+001
1.005777e+001
1.006127e+001
1.006467e+001
1.006797e+001
1.007117e+001
1.007426e+001
1.007724e+001
1.008009e+001
1.008283e+001
1.008543e+001
1.008790e+001
1.009024e+001
1.009244e+001
1.009450e+001
1.009641e+001
1.009817e+001
1.009978e+001
1.010123e+001
1.010253e+001
1.010368e+001
1.010466e+001
1.010548e+001
1.010614e+001
1.010663e+001
1.010696e+001
1.010713e+001
1.010713e+001
1.010696e+001
1.010663e+001
1.010614e+001
1.010548e+001
1.010466e+001
1.010368e+001