# vtk DataFile Version 3.0
9 points difference shceme(6-order bound)_
ASCII
DATASET STRUCTURED_POINTS
DIMENSIONS 41 41 1
ORIGIN 0.0 0.0 0.0
SPACING 0.025 0.025 1.0
POINT_DATA 1681
SCALARS Temperature double 1
LOOKUP_TABLE default
1.000000e+01
1.000000e+01
1.000000e+01
1.000000e+01
1.000000e+01
1.000000e+01
1.000000e+01
1.000000e+01
1.000000e+01
1.000000e+01
1.000000e+01
1.000000e+01
1.000000e+01
1.000000e+01
1.000000e+01
1.000000e+01
1.000000e+01
1.000000e+01
1.000000e+01
1.000000e+01
1.000000e+01
1.000000e+01
1.000000e+01
1.000000e+01
1.000000e+01
1.000000e+01
1.000000e+01
1.000000e+01
1.000000e+01
1.000000e+01
1.000000e+01
1.000000e+01
1.000000e+01
1.000000e+01
1.000000e+01
1.000000e+01
1.000000e+01
1.000000e+01
1.000000e+01
1.000000e+01
1.000000e+01
1.000000e+01
1.000053e+01
1.000106e+01
1.000159e+01
1.000210e+01
1.000261e+01
1.000309e+01
1.000356e+01
1.000400e+01
1.000442e+01
1.000481e+01
1.000518e+01
1.000551e+01
1.000580e+01
1.000607e+01
1.000629e+01
1.000647e+01
1.000662e+01
1.000672e+01
1.000679e+01
1.000681e+01
1.000679e+01
1.000672e+01
1.000662e+01
1.000647e+01
1.000629e+01
1.000607e+01
1.000580e+01
1.000551e+01
1.000518e+01
1.000481e+01
1.000442e+01
1.000400e+01
1.000356e+01
1.000309e+01
1.000261e+01
1.000210e+01
1.000159e+01
1.000106e+01
1.000053e+01
1.000000e+01
1.000000e+01
1.000107e+01
1.000214e+01
1.000319e+01
1.000422e+01
1.000523e+01
1.000620e+01
1.000714e+01
1.000803e+01
1.000887e+01
1.000966e+01
1.001039e+01
1.001105e+01
1.001164e+01
1.001217e+01
1.001262e+01
1.001299e+01
1.001328e+01
1.001349e+01
1.001362e+01
1.001366e+01
1.001362e+01
1.001349e+01
1.001328e+01
1.001299e+01
1.001262e+01
1.001217e+01
1.001164e+01
1.001105e+01
1.001039e+01
1.000966e+01
1.000887e+01
1.000803e+01
1.000714e+01
1.000620e+01
1.000523e+01
1.000422e+01
1.000319e+01
1.000214e+01
1.000107e+01
1.000000e+01
1.000000e+01
1.000162e+01
1.000322e+01
1.000481e+01
1.000636e+01
1.000788e+01
1.000935e+01
1.001076e+01
1.001210e+01
1.001337e+01
1.001456e+01
1.001566e+01
1.001666e+01
1.001756e+01
1.001835e+01
1.001902e+01
1.001958e+01
1.002002e+01
1.002034e+01
1.002053e+01
1.002059e+01
1.002053e+01
1.002034e+01
1.002002e+01
1.001958e+01
1.001902e+01
1.001835e+01
1.001756e+01
1.001666e+01
1.001566e+01
1.001456e+01
1.001337e+01
1.001210e+01
1.001076e+01
1.000935e+01
1.000788e+01
1.000636e+01
1.000481e+01
1.000322e+01
1.000162e+01
1.000000e+01
1.000000e+01
1.000217e+01
1.000433e+01
1.000646e+01
1.000855e+01
1.001058e+01
1.001255e+01
1.001445e+01
1.001625e+01
1.001796e+01
1.001955e+01
1.002103e+01
1.002237e+01
1.002358e+01
1.002464e+01
1.002555e+01
1.002630e+01
1.002689e+01
1.002731e+01
1.002757e+01
1.002765e+01
1.002757e+01
1.002731e+01
1.002689e+01
1.002630e+01
1.002555e+01
1.002464e+01
1.002358e+01
1.002237e+01
1.002103e+01
1.001955e+01
1.001796e+01
1.001625e+01
1.001445e+01
1.001255e+01
1.001058e+01
1.000855e+01
1.000646e+01
1.000433e+01
1.000217e+01
1.000000e+01
1.000000e+01
1.000274e+01
1.000546e+01
1.000814e+01
1.001078e+01
1.001335e+01
1.001584e+01
1.001823e+01
1.002050e+01
1.002266e+01
1.002467e+01
1.002653e+01
1.002822e+01
1.002974e+01
1.003108e+01
1.003223e+01
1.003318e+01
1.003392e+01
1.003445e+01
1.003478e+01
1.003488e+01
1.003478e+01
1.003445e+01
1.003392e+01
1.003318e+01
1.003223e+01
1.003108e+01
1.002974e+01
1.002822e+01
1.002653e+01
1.002467e+01
1.002266e+01
1.002050e+01
1.001823e+01
1.001584e+01
1.001335e+01
1.001078e+01
1.000814e+01
1.000546e+01
1.000274e+01
1.000000e+01
1.000000e+01
1.000332e+01
1.000662e+01
1.000988e+01
1.001308e+01
1.001620e+01
1.001922e+01
1.002212e+01
1.002488e+01
1.002749e+01
1.002993e+01
1.003219e+01
1.003425e+01
1.003609e+01
1.003772e+01
1.003911e+01
1.004026e+01
1.004116e+01
1.004181e+01
1.004220e+01
1.004233e+01
1.004220e+01
1.004181e+01
1.004116e+01
1.004026e+01
1.003911e+01
1.003772e+01
1.003609e+01
1.003425e+01
1.003219e+01
1.002993e+01
1.002749e+01
1.002488e+01
1.002212e+01
1.001922e+01
1.001620e+01
1.001308e+01
1.000988e+01
1.000662e+01
1.000332e+01
1.000000e+01
1.000000e+01
1.000393e+01
1.000783e+01
1.001168e+01
1.001546e+01
1.001915e+01
1.002272e+01
1.002615e+01
1.002941e+01
1.003250e+01
1.003538e+01
1.003805e+01
1.004048e+01
1.004267e+01
1.004459e+01
1.004623e+01
1.004759e+01
1.004866e+01
1.004942e+01
1.004989e+01
1.005004e+01
1.004989e+01
1.004942e+01
1.004866e+01
1.004759e+01
1.004623e+01
1.004459e+01
1.004267e+01
1.004048e+01
1.003805e+01
1.003538e+01
1.003250e+01
1.002941e+01
1.002615e+01
1.002272e+01
1.001915e+01
1.001546e+01
1.001168e+01
1.000783e+01
1.000393e+01
1.000000e+01
1.000000e+01
1.000456e+01
1.000908e+01
1.001355e+01
1.001794e+01
1.002222e+01
1.002636e+01
1.003033e+01
1.003412e+01
1.003770e+01
1.004105e+01
1.004415e+01
1.004697e+01
1.004950e+01
1.005173e+01
1.005364e+01
1.005522e+01
1.005645e+01
1.005734e+01
1.005788e+01
1.005806e+01
1.005788e+01
1.005734e+01
1.005645e+01
1.005522e+01
1.005364e+01
1.005173e+01
1.004950e+01
1.004697e+01
1.004415e+01
1.004105e+01
1.003770e+01
1.003412e+01
1.003033e+01
1.002636e+01
1.002222e+01
1.001794e+01
1.001355e+01
1.000908e+01
1.000456e+01
1.000000e+01
1.000000e+01
1.000521e+01
1.001039e+01
1.001551e+01
1.002053e+01
1.002542e+01
1.003016e+01
1.003471e+01
1.003905e+01
1.004314e+01
1.004697e+01
1.005052e+01
1.005374e+01
1.005664e+01
1.005919e+01
1.006138e+01
1.006318e+01
1.006460e+01
1.006561e+01
1.006623e+01
1.006643e+01
1.006623e+01
1.006561e+01
1.006460e+01
1.006318e+01
1.006138e+01
1.005919e+01
1.005664e+01
1.005374e+01
1.005052e+01
1.004697e+01
1.004314e+01
1.003905e+01
1.003471e+01
1.003016e+01
1.002542e+01
1.002053e+01
1.001551e+01
1.001039e+01
1.000521e+01
1.000000e+01
1.000000e+01
1.000590e+01
1.001177e+01
1.001756e+01
1.002324e+01
1.002878e+01
1.003415e+01
1.003930e+01
1.004421e+01
1.004885e+01
1.005319e+01
1.005720e+01
1.006085e+01
1.006413e+01
1.006702e+01
1.006949e+01
1.007154e+01
1.007314e+01
1.007429e+01
1.007499e+01
1.007522e+01
1.007499e+01
1.007429e+01
1.007314e+01
1.007154e+01
1.006949e+01
1.006702e+01
1.006413e+01
1.006085e+01
1.005720e+01
1.005319e+01
1.004885e+01
1.004421e+01
1.003930e+01
1.003415e+01
1.002878e+01
1.002324e+01
1.001756e+01
1.001177e+01
1.000590e+01
1.000000e+01
1.000000e+01
1.000663e+01
1.001321e+01
1.001972e+01
1.002610e+01
1.003232e+01
1.003835e+01
1.004413e+01
1.004965e+01
1.005486e+01
1.005973e+01
1.006423e+01
1.006834e+01
1.007202e+01
1.007526e+01
1.007804e+01
1.008033e+01
1.008213e+01
1.008343e+01
1.008421e+01
1.008447e+01
1.008421e+01
1.008343e+01
1.008213e+01
1.008033e+01
1.007804e+01
1.007526e+01
1.007202e+01
1.006834e+01
1.006423e+01
1.005973e+01
1.005486e+01
1.004965e+01
1.004413e+01
1.003835e+01
1.003232e+01
1.002610e+01
1.001972e+01
1.001321e+01
1.000663e+01
1.000000e+01
1.000000e+01
1.000739e+01
1.001474e+01
1.002200e+01
1.002912e+01
1.003606e+01
1.004278e+01
1.004924e+01
1.005539e+01
1.006120e+01
1.006664e+01
1.007166e+01
1.007624e+01
1.008035e+01
1.008397e+01
1.008707e+01
1.008963e+01
1.009163e+01
1.009308e+01
1.009395e+01
1.009424e+01
1.009395e+01
1.009308e+01
1.009163e+01
1.008963e+01
1.008707e+01
1.008397e+01
1.008035e+01
1.007624e+01
1.007166e+01
1.006664e+01
1.006120e+01
1.005539e+01
1.004924e+01
1.004278e+01
1.003606e+01
1.002912e+01
1.002200e+01
1.001474e+01
1.000739e+01
1.000000e+01
1.000000e+01
1.000821e+01
1.001636e+01
1.002442e+01
1.003232e+01
1.004003e+01
1.004748e+01
1.005465e+01
1.006148e+01
1.006793e+01
1.007396e+01
1.007953e+01
1.008462e+01
1.008918e+01
1.009319e+01
1.009663e+01
1.009947e+01
1.010170e+01
1.010330e+01
1.010427e+01
1.010459e+01
1.010427e+01
1.010330e+01
1.010170e+01
1.009947e+01
1.009663e+01
1.009319e+01
1.008918e+01
1.008462e+01
1.007953e+01
1.007396e+01
1.006793e+01
1.006148e+01
1.005465e+01
1.004748e+01
1.004003e+01
1.003232e+01
1.002442e+01
1.001636e+01
1.000821e+01
1.000000e+01
1.000000e+01
1.000907e+01
1.001808e+01
1.002698e+01
1.003572e+01
1.004423e+01
1.005248e+01
1.006040e+01
1.006794e+01
1.007507e+01
1.008173e+01
1.008789e+01
1.009351e+01
1.009856e+01
1.010299e+01
1.010679e+01
1.010993e+01
1.011240e+01
1.011417e+01
1.011523e+01
1.011559e+01
1.011523e+01
1.011417e+01
1.011240e+01
1.010993e+01
1.010679e+01
1.010299e+01
1.009856e+01
1.009351e+01
1.008789e+01
1.008173e+01
1.007507e+01
1.006794e+01
1.006040e+01
1.005248e+01
1.004423e+01
1.003572e+01
1.002698e+01
1.001808e+01
1.000907e+01
1.000000e+01
1.000000e+01
1.000999e+01
1.001991e+01
1.002972e+01
1.003934e+01
1.004872e+01
1.005779e+01
1.006651e+01
1.007483e+01
1.008268e+01
1.009002e+01
1.009680e+01
1.010299e+01
1.010854e+01
1.011343e+01
1.011761e+01
1.012107e+01
1.012378e+01
1.012573e+01
1.012691e+01
1.012730e+01
1.012691e+01
1.012573e+01
1.012378e+01
1.012107e+01
1.011761e+01
1.011343e+01
1.010854e+01
1.010299e+01
1.009680e+01
1.009002e+01
1.008268e+01
1.007483e+01
1.006651e+01
1.005779e+01
1.004872e+01
1.003934e+01
1.002972e+01
1.001991e+01
1.000999e+01
1.000000e+01
1.000000e+01
1.001097e+01
1.002187e+01
1.003264e+01
1.004320e+01
1.005350e+01
1.006347e+01
1.007304e+01
1.008217e+01
1.009079e+01
1.009885e+01
1.010630e+01
1.011310e+01
1.011920e+01
1.012456e+01
1.012916e+01
1.013296e+01
1.013594e+01
1.013808e+01
1.013937e+01
1.013980e+01
1.013937e+01
1.013808e+01
1.013594e+01
1.013296e+01
1.012916e+01
1.012456e+01
1.011920e+01
1.011310e+01
1.010630e+01
1.009885e+01
1.009079e+01
1.008217e+01
1.007304e+01
1.006347e+01
1.005350e+01
1.004320e+01
1.003264e+01
1.002187e+01
1.001097e+01
1.000000e+01
1.000000e+01
1.001202e+01
1.002396e+01
1.003575e+01
1.004733e+01
1.005861e+01
1.006953e+01
1.008002e+01
1.009002e+01
1.009947e+01
1.010830e+01
1.011646e+01
1.012391e+01
1.013059e+01
1.013646e+01
1.014150e+01
1.014566e+01
1.014893e+01
1.015127e+01
1.015269e+01
1.015316e+01
1.015269e+01
1.015127e+01
1.014893e+01
1.014566e+01
1.014150e+01
1.013646e+01
1.013059e+01
1.012391e+01
1.011646e+01
1.010830e+01
1.009947e+01
1.009002e+01
1.008002e+01
1.006953e+01
1.005861e+01
1.004733e+01
1.003575e+01
1.002396e+01
1.001202e+01
1.000000e+01
1.000000e+01
1.001314e+01
1.002620e+01
1.003909e+01
1.005175e+01
1.006409e+01
1.007603e+01
1.008750e+01
1.009843e+01
1.010876e+01
1.011841e+01
1.012734e+01
1.013548e+01
1.014279e+01
1.014921e+01
1.015472e+01
1.015927e+01
1.016284e+01
1.016540e+01
1.016695e+01
1.016746e+01
1.016695e+01
1.016540e+01
1.016284e+01
1.015927e+01
1.015472e+01
1.014921e+01
1.014279e+01
1.013548e+01
1.012734e+01
1.011841e+01
1.010876e+01
1.009843e+01
1.008750e+01
1.007603e+01
1.006409e+01
1.005175e+01
1.003909e+01
1.002620e+01
1.001314e+01
1.000000e+01
1.000000e+01
1.001434e+01
1.002860e+01
1.004267e+01
1.005649e+01
1.006996e+01
1.008299e+01
1.009551e+01
1.010745e+01
1.011872e+01
1.012926e+01
1.013900e+01
1.014789e+01
1.015586e+01
1.016288e+01
1.016889e+01
1.017385e+01
1.017775e+01
1.018055e+01
1.018224e+01
1.018280e+01
1.018224e+01
1.018055e+01
1.017775e+01
1.017385e+01
1.016889e+01
1.016288e+01
1.015586e+01
1.014789e+01
1.013900e+01
1.012926e+01
1.011872e+01
1.010745e+01
1.009551e+01
1.008299e+01
1.006996e+01
1.005649e+01
1.004267e+01
1.002860e+01
1.001434e+01
1.000000e+01
1.000000e+01
1.001563e+01
1.003117e+01
1.004652e+01
1.006158e+01
1.007626e+01
1.009047e+01
1.010412e+01
1.011713e+01
1.012941e+01
1.014090e+01
1.015152e+01
1.016121e+01
1.016990e+01
1.017755e+01
1.018410e+01
1.018952e+01
1.019376e+01
1.019682e+01
1.019865e+01
1.019927e+01
1.019865e+01
1.019682e+01
1.019376e+01
1.018952e+01
1.018410e+01
1.017755e+01
1.016990e+01
1.016121e+01
1.015152e+01
1.014090e+01
1.012941e+01
1.011713e+01
1.010412e+01
1.009047e+01
1.007626e+01
1.006158e+01
1.004652e+01
1.003117e+01
1.001563e+01
1.000000e+01
1.000000e+01
1.001702e+01
1.003394e+01
1.005065e+01
1.006705e+01
1.008303e+01
1.009850e+01
1.011336e+01
1.012753e+01
1.014091e+01
1.015342e+01
1.016498e+01
1.017553e+01
1.018499e+01
1.019332e+01
1.020045e+01
1.020635e+01
1.021097e+01
1.021429e+01
1.021630e+01
1.021697e+01
1.021630e+01
1.021429e+01
1.021097e+01
1.020635e+01
1.020045e+01
1.019332e+01
1.018499e+01
1.017553e+01
1.016498e+01
1.015342e+01
1.014091e+01
1.012753e+01
1.011336e+01
1.009850e+01
1.008303e+01
1.006705e+01
1.005065e+01
1.003394e+01
1.001702e+01
1.000000e+01
1.000000e+01
1.001852e+01
1.003692e+01
1.005509e+01
1.007293e+01
1.009031e+01
1.010714e+01
1.012331e+01
1.013872e+01
1.015327e+01
1.016688e+01
1.017946e+01
1.019093e+01
1.020122e+01
1.021028e+01
1.021804e+01
1.022445e+01
1.022948e+01
1.023310e+01
1.023527e+01
1.023600e+01
1.023527e+01
1.023310e+01
1.022948e+01
1.022445e+01
1.021804e+01
1.021028e+01
1.020122e+01
1.019093e+01
1.017946e+01
1.016688e+01
1.015327e+01
1.013872e+01
1.012331e+01
1.010714e+01
1.009031e+01
1.007293e+01
1.005509e+01
1.003692e+01
1.001852e+01
1.000000e+01
1.000000e+01
1.002012e+01
1.004012e+01
1.005988e+01
1.007926e+01
1.009816e+01
1.011645e+01
1.013402e+01
1.015076e+01
1.016658e+01
1.018137e+01
1.019504e+01
1.020751e+01
1.021870e+01
1.022854e+01
1.023697e+01
1.024394e+01
1.024941e+01
1.025334e+01
1.025570e+01
1.025649e+01
1.025570e+01
1.025334e+01
1.024941e+01
1.024394e+01
1.023697e+01
1.022854e+01
1.021870e+01
1.020751e+01
1.019504e+01
1.018137e+01
1.016658e+01
1.015076e+01
1.013402e+01
1.011645e+01
1.009816e+01
1.007926e+01
1.005988e+01
1.004012e+01
1.002012e+01
1.000000e+01
1.000000e+01
1.002186e+01
1.004358e+01
1.006503e+01
1.008608e+01
1.010660e+01
1.012647e+01
1.014555e+01
1.016374e+01
1.018092e+01
1.019698e+01
1.021183e+01
1.022537e+01
1.023752e+01
1.024821e+01
1.025736e+01
1.026493e+01
1.027087e+01
1.027514e+01
1.027771e+01
1.027857e+01
1.027771e+01
1.027514e+01
1.027087e+01
1.026493e+01
1.025736e+01
1.024821e+01
1.023752e+01
1.022537e+01
1.021183e+01
1.019698e+01
1.018092e+01
1.016374e+01
1.014555e+01
1.012647e+01
1.010660e+01
1.008608e+01
1.006503e+01
1.004358e+01
1.002186e+01
1.000000e+01
1.000000e+01
1.002372e+01
1.004730e+01
1.007059e+01
1.009344e+01
1.011571e+01
1.013727e+01
1.015798e+01
1.017772e+01
1.019637e+01
1.021380e+01
1.022992e+01
1.024462e+01
1.025781e+01
1.026941e+01
1.027935e+01
1.028756e+01
1.029401e+01
1.029864e+01
1.030143e+01
1.030236e+01
1.030143e+01
1.029864e+01
1.029401e+01
1.028756e+01
1.027935e+01
1.026941e+01
1.025781e+01
1.024462e+01
1.022992e+01
1.021380e+01
1.019637e+01
1.017772e+01
1.015798e+01
1.013727e+01
1.011571e+01
1.009344e+01
1.007059e+01
1.004730e+01
1.002372e+01
1.000000e+01
1.000000e+01
1.002574e+01
1.005131e+01
1.007658e+01
1.010136e+01
1.012553e+01
1.014892e+01
1.017139e+01
1.019281e+01
1.021303e+01
1.023195e+01
1.024943e+01
1.026538e+01
1.027969e+01
1.029227e+01
1.030305e+01
1.031197e+01
1.031896e+01
1.032398e+01
1.032701e+01
1.032802e+01
1.032701e+01
1.032398e+01
1.031896e+01
1.031197e+01
1.030305e+01
1.029227e+01
1.027969e+01
1.026538e+01
1.024943e+01
1.023195e+01
1.021303e+01
1.019281e+01
1.017139e+01
1.014892e+01
1.012553e+01
1.010136e+01
1.007658e+01
1.005131e+01
1.002574e+01
1.000000e+01
1.000000e+01
1.002791e+01
1.005565e+01
1.008304e+01
1.010992e+01
1.013612e+01
1.016149e+01
1.018586e+01
1.020908e+01
1.023101e+01
1.025152e+01
1.027048e+01
1.028777e+01
1.030329e+01
1.031694e+01
1.032863e+01
1.033830e+01
1.034588e+01
1.035133e+01
1.035461e+01
1.035571e+01
1.035461e+01
1.035133e+01
1.034588e+01
1.033830e+01
1.032863e+01
1.031694e+01
1.030329e+01
1.028777e+01
1.027048e+01
1.025152e+01
1.023101e+01
1.020908e+01
1.018586e+01
1.016149e+01
1.013612e+01
1.010992e+01
1.008304e+01
1.005565e+01
1.002791e+01
1.000000e+01
1.000000e+01
1.003025e+01
1.006032e+01
1.009001e+01
1.011915e+01
1.014756e+01
1.017505e+01
1.020147e+01
1.022664e+01
1.025042e+01
1.027265e+01
1.029320e+01
1.031195e+01
1.032877e+01
1.034356e+01
1.035624e+01
1.036672e+01
1.037493e+01
1.038084e+01
1.038440e+01
1.038559e+01
1.038440e+01
1.038084e+01
1.037493e+01
1.036672e+01
1.035624e+01
1.034356e+01
1.032877e+01
1.031195e+01
1.029320e+01
1.027265e+01
1.025042e+01
1.022664e+01
1.020147e+01
1.017505e+01
1.014756e+01
1.011915e+01
1.009001e+01
1.006032e+01
1.003025e+01
1.000000e+01
1.000000e+01
1.003278e+01
1.006537e+01
1.009754e+01
1.012912e+01
1.015990e+01
1.018970e+01
1.021833e+01
1.024561e+01
1.027137e+01
1.029546e+01
1.031773e+01
1.033805e+01
1.035627e+01
1.037231e+01
1.038604e+01
1.039740e+01
1.040630e+01
1.041270e+01
1.041656e+01
1.041785e+01
1.041656e+01
1.041270e+01
1.040630e+01
1.039740e+01
1.038604e+01
1.037231e+01
1.035627e+01
1.033805e+01
1.031773e+01
1.029546e+01
1.027137e+01
1.024561e+01
1.021833e+01
1.018970e+01
1.015990e+01
1.012912e+01
1.009754e+01
1.006537e+01
1.003278e+01
1.000000e+01
1.000000e+01
1.003552e+01
1.007082e+01
1.010568e+01
1.013989e+01
1.017324e+01
1.020552e+01
1.023653e+01
1.026608e+01
1.029400e+01
1.032010e+01
1.034423e+01
1.036623e+01
1.038598e+01
1.040335e+01
1.041823e+01
1.043053e+01
1.044018e+01
1.044711e+01
1.045129e+01
1.045269e+01
1.045129e+01
1.044711e+01
1.044018e+01
1.043053e+01
1.041823e+01
1.040335e+01
1.038598e+01
1.036623e+01
1.034423e+01
1.032010e+01
1.029400e+01
1.026608e+01
1.023653e+01
1.020552e+01
1.017324e+01
1.013989e+01
1.010568e+01
1.007082e+01
1.003552e+01
1.000000e+01
1.000000e+01
1.003847e+01
1.007670e+01
1.011446e+01
1.015152e+01
1.018764e+01
1.022260e+01
1.025619e+01
1.028820e+01
1.031844e+01
1.034671e+01
1.037284e+01
1.039668e+01
1.041807e+01
1.043688e+01
1.045300e+01
1.046632e+01
1.047677e+01
1.048428e+01
1.048881e+01
1.049032e+01
1.048881e+01
1.048428e+01
1.047677e+01
1.046632e+01
1.045300e+01
1.043688e+01
1.041807e+01
1.039668e+01
1.037284e+01
1.034671e+01
1.031844e+01
1.028820e+01
1.025619e+01
1.022260e+01
1.018764e+01
1.015152e+01
1.011446e+01
1.007670e+01
1.003847e+01
1.000000e+01
1.000000e+01
1.004166e+01
1.008306e+01
1.012395e+01
1.016408e+01
1.020320e+01
1.024106e+01
1.027744e+01
1.031210e+01
1.034484e+01
1.037546e+01
1.040376e+01
1.042957e+01
1.045273e+01
1.047311e+01
1.049056e+01
1.050499e+01
1.051631e+01
1.052444e+01
1.052934e+01
1.053098e+01
1.052934e+01
1.052444e+01
1.051631e+01
1.050499e+01
1.049056e+01
1.047311e+01
1.045273e+01
1.042957e+01
1.040376e+01
1.037546e+01
1.034484e+01
1.031210e+01
1.027744e+01
1.024106e+01
1.020320e+01
1.016408e+01
1.012395e+01
1.008306e+01
1.004166e+01
1.000000e+01
1.000000e+01
1.004511e+01
1.008994e+01
1.013421e+01
1.017766e+01
1.022001e+01
1.026101e+01
1.030039e+01
1.033793e+01
1.037338e+01
1.040653e+01
1.043717e+01
1.046512e+01
1.049020e+01
1.051225e+01
1.053115e+01
1.054678e+01
1.055903e+01
1.056784e+01
1.057314e+01
1.057492e+01
1.057314e+01
1.056784e+01
1.055903e+01
1.054678e+01
1.053115e+01
1.051225e+01
1.049020e+01
1.046512e+01
1.043717e+01
1.040653e+01
1.037338e+01
1.033793e+01
1.030039e+01
1.026101e+01
1.022001e+01
1.017766e+01
1.013421e+01
1.008994e+01
1.004511e+01
1.000000e+01
1.000000e+01
1.004883e+01
1.009736e+01
1.014530e+01
1.019233e+01
1.023818e+01
1.028256e+01
1.032520e+01
1.036584e+01
1.040422e+01
1.044010e+01
1.047328e+01
1.050353e+01
1.053068e+01
1.055456e+01
1.057502e+01
1.059194e+01
1.060520e+01
1.061474e+01
1.062048e+01
1.062240e+01
1.062048e+01
1.061474e+01
1.060520e+01
1.059194e+01
1.057502e+01
1.055456e+01
1.053068e+01
1.050353e+01
1.047328e+01
1.044010e+01
1.040422e+01
1.036584e+01
1.032520e+01
1.028256e+01
1.023818e+01
1.019233e+01
1.014530e+01
1.009736e+01
1.004883e+01
1.000000e+01
1.000000e+01
1.005286e+01
1.010539e+01
1.015728e+01
1.020819e+01
1.025782e+01
1.030586e+01
1.035202e+01
1.039601e+01
1.043755e+01
1.047640e+01
1.051230e+01
1.054505e+01
1.057444e+01
1.060029e+01
1.062244e+01
1.064075e+01
1.065511e+01
1.066543e+01
1.067165e+01
1.067372e+01
1.067165e+01
1.066543e+01
1.065511e+01
1.064075e+01
1.062244e+01
1.060029e+01
1.057444e+01
1.054505e+01
1.051230e+01
1.047640e+01
1.043755e+01
1.039601e+01
1.035202e+01
1.030586e+01
1.025782e+01
1.020819e+01
1.015728e+01
1.010539e+01
1.005286e+01
1.000000e+01
1.000000e+01
1.005721e+01
1.011407e+01
1.017023e+01
1.022534e+01
1.027906e+01
1.033105e+01
1.038101e+01
1.042862e+01
1.047358e+01
1.051563e+01
1.055449e+01
1.058994e+01
1.062175e+01
1.064973e+01
1.067370e+01
1.069352e+01
1.070906e+01
1.072023e+01
1.072696e+01
1.072921e+01
1.072696e+01
1.072023e+01
1.070906e+01
1.069352e+01
1.067370e+01
1.064973e+01
1.062175e+01
1.058994e+01
1.055449e+01
1.051563e+01
1.047358e+01
1.042862e+01
1.038101e+01
1.033105e+01
1.027906e+01
1.022534e+01
1.017023e+01
1.011407e+01
1.005721e+01
1.000000e+01
1.000000e+01
1.006192e+01
1.012346e+01
1.018423e+01
1.024387e+01
1.030201e+01
1.035829e+01
1.041235e+01
1.046388e+01
1.051254e+01
1.055804e+01
1.060011e+01
1.063847e+01
1.067290e+01
1.070317e+01
1.072912e+01
1.075057e+01
1.076739e+01
1.077948e+01
1.078676e+01
1.078919e+01
1.078676e+01
1.077948e+01
1.076739e+01
1.075057e+01
1.072912e+01
1.070317e+01
1.067290e+01
1.063847e+01
1.060011e+01
1.055804e+01
1.051254e+01
1.046388e+01
1.041235e+01
1.035829e+01
1.030201e+01
1.024387e+01
1.018423e+01
1.012346e+01
1.006192e+01
1.000000e+01
1.000000e+01
1.006701e+01
1.013360e+01
1.019937e+01
1.026391e+01
1.032683e+01
1.038773e+01
1.044624e+01
1.050200e+01
1.055466e+01
1.060390e+01
1.064942e+01
1.069094e+01
1.072819e+01
1.076096e+01
1.078904e+01
1.081225e+01
1.083045e+01
1.084353e+01
1.085141e+01
1.085405e+01
1.085141e+01
1.084353e+01
1.083045e+01
1.081225e+01
1.078904e+01
1.076096e+01
1.072819e+01
1.069094e+01
1.064942e+01
1.060390e+01
1.055466e+01
1.050200e+01
1.044624e+01
1.038773e+01
1.032683e+01
1.026391e+01
1.019937e+01
1.013360e+01
1.006701e+01
1.000000e+01
1.000000e+01
1.007251e+01
1.014457e+01
1.021574e+01
1.028558e+01
1.035366e+01
1.041956e+01
1.048288e+01
1.054321e+01
1.060020e+01
1.065349e+01
1.070275e+01
1.074767e+01
1.078799e+01
1.082344e+01
1.085382e+01
1.087894e+01
1.089864e+01
1.091279e+01
1.092132e+01
1.092417e+01
1.092132e+01
1.091279e+01
1.089864e+01
1.087894e+01
1.085382e+01
1.082344e+01
1.078799e+01
1.074767e+01
1.070275e+01
1.065349e+01
1.060020e+01
1.054321e+01
1.048288e+01
1.041956e+01
1.035366e+01
1.028558e+01
1.021574e+01
1.014457e+01
1.007251e+01
1.000000e+01
1.000000e+01
1.007846e+01
1.015643e+01
1.023345e+01
1.030902e+01
1.038268e+01
1.045399e+01
1.052250e+01
1.058779e+01
1.064945e+01
1.070711e+01
1.076041e+01
1.080902e+01
1.085264e+01
1.089101e+01
1.092388e+01
1.095106e+01
1.097237e+01
1.098769e+01
1.099692e+01
1.100000e+01
1.099692e+01
1.098769e+01
1.097237e+01
1.095106e+01
1.092388e+01
1.089101e+01
1.085264e+01
1.080902e+01
1.076041e+01
1.070711e+01
1.064945e+01
1.058779e+01
1.052250e+01
1.045399e+01
1.038268e+01
1.030902e+01
1.023345e+01
1.015643e+01
1.007846e+01
1.000000e+01
