# vtk DataFile Version 3.0
Analytical_solution_81x81
ASCII
DATASET STRUCTURED_POINTS
DIMENSIONS 81 81 1
ORIGIN 0.0 0.0 0.0
SPACING 0.0125 0.0125 1.0
POINT_DATA 6561
SCALARS Analytical_Temperature double 1
LOOKUP_TABLE default
1.000000e+001
1.000000e+001
1.000000e+001
1.000000e+001
1.000000e+001
1.000000e+001
1.000000e+001
1.000000e+001
1.000000e+001
1.000000e+001
1.000000e+001
1.000000e+001
1.000000e+001
1.000000e+001
1.000000e+001
1.000000e+001
1.000000e+001
1.000000e+001
1.000000e+001
1.000000e+001
1.000000e+001
1.000000e+001
1.000000e+001
1.000000e+001
1.000000e+001
1.000000e+001
1.000000e+001
1.000000e+001
1.000000e+001
1.000000e+001
1.000000e+001
1.000000e+001
1.000000e+001
1.000000e+001
1.000000e+001
1.000000e+001
1.000000e+001
1.000000e+001
1.000000e+001
1.000000e+001
1.000000e+001
1.000000e+001
1.000000e+001
1.000000e+001
1.000000e+001
1.000000e+001
1.000000e+001
1.000000e+001
1.000000e+001
1.000000e+001
1.000000e+001
1.000000e+001
1.000000e+001
1.000000e+001
1.000000e+001
1.000000e+001
1.000000e+001
1.000000e+001
1.000000e+001
1.000000e+001
1.000000e+001
1.000000e+001
1.000000e+001
1.000000e+001
1.000000e+001
1.000000e+001
1.000000e+001
1.000000e+001
1.000000e+001
1.000000e+001
1.000000e+001
1.000000e+001
1.000000e+001
1.000000e+001
1.000000e+001
1.000000e+001
1.000000e+001
1.000000e+001
1.000000e+001
1.000000e+001
1.000000e+001
1.000000e+001
1.000013e+001
1.000027e+001
1.000040e+001
1.000053e+001
1.000066e+001
1.000079e+001
1.000092e+001
1.000105e+001
1.000118e+001
1.000130e+001
1.000142e+001
1.000154e+001
1.000166e+001
1.000178e+001
1.000189e+001
1.000200e+001
1.000211e+001
1.000221e+001
1.000231e+001
1.000241e+001
1.000250e+001
1.000259e+001
1.000267e+001
1.000275e+001
1.000283e+001
1.000290e+001
1.000297e+001
1.000303e+001
1.000309e+001
1.000314e+001
1.000319e+001
1.000323e+001
1.000327e+001
1.000331e+001
1.000334e+001
1.000336e+001
1.000338e+001
1.000339e+001
1.000340e+001
1.000340e+001
1.000340e+001
1.000339e+001
1.000338e+001
1.000336e+001
1.000334e+001
1.000331e+001
1.000327e+001
1.000323e+001
1.000319e+001
1.000314e+001
1.000309e+001
1.000303e+001
1.000297e+001
1.000290e+001
1.000283e+001
1.000275e+001
1.000267e+001
1.000259e+001
1.000250e+001
1.000241e+001
1.000231e+001
1.000221e+001
1.000211e+001
1.000200e+001
1.000189e+001
1.000178e+001
1.000166e+001
1.000154e+001
1.000142e+001
1.000130e+001
1.000118e+001
1.000105e+001
1.000092e+001
1.000079e+001
1.000066e+001
1.000053e+001
1.000040e+001
1.000027e+001
1.000013e+001
1.000000e+001
1.000000e+001
1.000027e+001
1.000053e+001
1.000080e+001
1.000106e+001
1.000133e+001
1.000159e+001
1.000185e+001
1.000210e+001
1.000236e+001
1.000261e+001
1.000285e+001
1.000309e+001
1.000333e+001
1.000356e+001
1.000378e+001
1.000400e+001
1.000421e+001
1.000442e+001
1.000462e+001
1.000481e+001
1.000500e+001
1.000518e+001
1.000535e+001
1.000551e+001
1.000566e+001
1.000580e+001
1.000594e+001
1.000607e+001
1.000618e+001
1.000629e+001
1.000639e+001
1.000647e+001
1.000655e+001
1.000662e+001
1.000668e+001
1.000672e+001
1.000676e+001
1.000679e+001
1.000680e+001
1.000681e+001
1.000680e+001
1.000679e+001
1.000676e+001
1.000672e+001
1.000668e+001
1.000662e+001
1.000655e+001
1.000647e+001
1.000639e+001
1.000629e+001
1.000618e+001
1.000607e+001
1.000594e+001
1.000580e+001
1.000566e+001
1.000551e+001
1.000535e+001
1.000518e+001
1.000500e+001
1.000481e+001
1.000462e+001
1.000442e+001
1.000421e+001
1.000400e+001
1.000378e+001
1.000356e+001
1.000333e+001
1.000309e+001
1.000285e+001
1.000261e+001
1.000236e+001
1.000210e+001
1.000185e+001
1.000159e+001
1.000133e+001
1.000106e+001
1.000080e+001
1.000053e+001
1.000027e+001
1.000000e+001
1.000000e+001
1.000040e+001
1.000080e+001
1.000120e+001
1.000160e+001
1.000199e+001
1.000239e+001
1.000278e+001
1.000316e+001
1.000354e+001
1.000391e+001
1.000428e+001
1.000464e+001
1.000500e+001
1.000534e+001
1.000568e+001
1.000601e+001
1.000633e+001
1.000664e+001
1.000694e+001
1.000723e+001
1.000751e+001
1.000777e+001
1.000803e+001
1.000827e+001
1.000850e+001
1.000872e+001
1.000892e+001
1.000911e+001
1.000929e+001
1.000945e+001
1.000959e+001
1.000972e+001
1.000984e+001
1.000994e+001
1.001003e+001
1.001010e+001
1.001015e+001
1.001019e+001
1.001022e+001
1.001022e+001
1.001022e+001
1.001019e+001
1.001015e+001
1.001010e+001
1.001003e+001
1.000994e+001
1.000984e+001
1.000972e+001
1.000959e+001
1.000945e+001
1.000929e+001
1.000911e+001
1.000892e+001
1.000872e+001
1.000850e+001
1.000827e+001
1.000803e+001
1.000777e+001
1.000751e+001
1.000723e+001
1.000694e+001
1.000664e+001
1.000633e+001
1.000601e+001
1.000568e+001
1.000534e+001
1.000500e+001
1.000464e+001
1.000428e+001
1.000391e+001
1.000354e+001
1.000316e+001
1.000278e+001
1.000239e+001
1.000199e+001
1.000160e+001
1.000120e+001
1.000080e+001
1.000040e+001
1.000000e+001
1.000000e+001
1.000054e+001
1.000107e+001
1.000161e+001
1.000214e+001
1.000266e+001
1.000319e+001
1.000371e+001
1.000422e+001
1.000473e+001
1.000523e+001
1.000572e+001
1.000620e+001
1.000667e+001
1.000714e+001
1.000759e+001
1.000803e+001
1.000846e+001
1.000887e+001
1.000927e+001
1.000966e+001
1.001003e+001
1.001039e+001
1.001073e+001
1.001105e+001
1.001136e+001
1.001164e+001
1.001192e+001
1.001217e+001
1.001240e+001
1.001262e+001
1.001281e+001
1.001299e+001
1.001314e+001
1.001328e+001
1.001340e+001
1.001349e+001
1.001356e+001
1.001362e+001
1.001365e+001
1.001366e+001
1.001365e+001
1.001362e+001
1.001356e+001
1.001349e+001
1.001340e+001
1.001328e+001
1.001314e+001
1.001299e+001
1.001281e+001
1.001262e+001
1.001240e+001
1.001217e+001
1.001192e+001
1.001164e+001
1.001136e+001
1.001105e+001
1.001073e+001
1.001039e+001
1.001003e+001
1.000966e+001
1.000927e+001
1.000887e+001
1.000846e+001
1.000803e+001
1.000759e+001
1.000714e+001
1.000667e+001
1.000620e+001
1.000572e+001
1.000523e+001
1.000473e+001
1.000422e+001
1.000371e+001
1.000319e+001
1.000266e+001
1.000214e+001
1.000161e+001
1.000107e+001
1.000054e+001
1.000000e+001
1.000000e+001
1.000067e+001
1.000134e+001
1.000201e+001
1.000268e+001
1.000334e+001
1.000399e+001
1.000464e+001
1.000529e+001
1.000592e+001
1.000655e+001
1.000716e+001
1.000777e+001
1.000836e+001
1.000894e+001
1.000951e+001
1.001006e+001
1.001059e+001
1.001111e+001
1.001162e+001
1.001210e+001
1.001257e+001
1.001301e+001
1.001344e+001
1.001384e+001
1.001423e+001
1.001459e+001
1.001493e+001
1.001525e+001
1.001554e+001
1.001581e+001
1.001605e+001
1.001627e+001
1.001647e+001
1.001664e+001
1.001678e+001
1.001690e+001
1.001699e+001
1.001706e+001
1.001710e+001
1.001711e+001
1.001710e+001
1.001706e+001
1.001699e+001
1.001690e+001
1.001678e+001
1.001664e+001
1.001647e+001
1.001627e+001
1.001605e+001
1.001581e+001
1.001554e+001
1.001525e+001
1.001493e+001
1.001459e+001
1.001423e+001
1.001384e+001
1.001344e+001
1.001301e+001
1.001257e+001
1.001210e+001
1.001162e+001
1.001111e+001
1.001059e+001
1.001006e+001
1.000951e+001
1.000894e+001
1.000836e+001
1.000777e+001
1.000716e+001
1.000655e+001
1.000592e+001
1.000529e+001
1.000464e+001
1.000399e+001
1.000334e+001
1.000268e+001
1.000201e+001
1.000134e+001
1.000067e+001
1.000000e+001
1.000000e+001
1.000081e+001
1.000162e+001
1.000242e+001
1.000322e+001
1.000402e+001
1.000481e+001
1.000559e+001
1.000636e+001
1.000713e+001
1.000788e+001
1.000862e+001
1.000935e+001
1.001006e+001
1.001076e+001
1.001144e+001
1.001210e+001
1.001275e+001
1.001337e+001
1.001398e+001
1.001456e+001
1.001512e+001
1.001566e+001
1.001617e+001
1.001666e+001
1.001712e+001
1.001756e+001
1.001797e+001
1.001835e+001
1.001870e+001
1.001902e+001
1.001932e+001
1.001958e+001
1.001982e+001
1.002002e+001
1.002020e+001
1.002034e+001
1.002045e+001
1.002053e+001
1.002058e+001
1.002059e+001
1.002058e+001
1.002053e+001
1.002045e+001
1.002034e+001
1.002020e+001
1.002002e+001
1.001982e+001
1.001958e+001
1.001932e+001
1.001902e+001
1.001870e+001
1.001835e+001
1.001797e+001
1.001756e+001
1.001712e+001
1.001666e+001
1.001617e+001
1.001566e+001
1.001512e+001
1.001456e+001
1.001398e+001
1.001337e+001
1.001275e+001
1.001210e+001
1.001144e+001
1.001076e+001
1.001006e+001
1.000935e+001
1.000862e+001
1.000788e+001
1.000713e+001
1.000636e+001
1.000559e+001
1.000481e+001
1.000402e+001
1.000322e+001
1.000242e+001
1.000162e+001
1.000081e+001
1.000000e+001
1.000000e+001
1.000095e+001
1.000189e+001
1.000283e+001
1.000377e+001
1.000470e+001
1.000563e+001
1.000654e+001
1.000745e+001
1.000834e+001
1.000922e+001
1.001009e+001
1.001094e+001
1.001178e+001
1.001259e+001
1.001339e+001
1.001417e+001
1.001492e+001
1.001565e+001
1.001636e+001
1.001704e+001
1.001770e+001
1.001833e+001
1.001893e+001
1.001950e+001
1.002004e+001
1.002055e+001
1.002103e+001
1.002148e+001
1.002189e+001
1.002227e+001
1.002261e+001
1.002292e+001
1.002320e+001
1.002344e+001
1.002364e+001
1.002381e+001
1.002394e+001
1.002403e+001
1.002408e+001
1.002410e+001
1.002408e+001
1.002403e+001
1.002394e+001
1.002381e+001
1.002364e+001
1.002344e+001
1.002320e+001
1.002292e+001
1.002261e+001
1.002227e+001
1.002189e+001
1.002148e+001
1.002103e+001
1.002055e+001
1.002004e+001
1.001950e+001
1.001893e+001
1.001833e+001
1.001770e+001
1.001704e+001
1.001636e+001
1.001565e+001
1.001492e+001
1.001417e+001
1.001339e+001
1.001259e+001
1.001178e+001
1.001094e+001
1.001009e+001
1.000922e+001
1.000834e+001
1.000745e+001
1.000654e+001
1.000563e+001
1.000470e+001
1.000377e+001
1.000283e+001
1.000189e+001
1.000095e+001
1.000000e+001
1.000000e+001
1.000109e+001
1.000217e+001
1.000325e+001
1.000433e+001
1.000539e+001
1.000646e+001
1.000751e+001
1.000855e+001
1.000957e+001
1.001058e+001
1.001158e+001
1.001255e+001
1.001351e+001
1.001445e+001
1.001536e+001
1.001625e+001
1.001712e+001
1.001796e+001
1.001877e+001
1.001955e+001
1.002031e+001
1.002103e+001
1.002172e+001
1.002237e+001
1.002299e+001
1.002358e+001
1.002413e+001
1.002464e+001
1.002511e+001
1.002555e+001
1.002594e+001
1.002630e+001
1.002661e+001
1.002689e+001
1.002712e+001
1.002731e+001
1.002746e+001
1.002757e+001
1.002763e+001
1.002765e+001
1.002763e+001
1.002757e+001
1.002746e+001
1.002731e+001
1.002712e+001
1.002689e+001
1.002661e+001
1.002630e+001
1.002594e+001
1.002555e+001
1.002511e+001
1.002464e+001
1.002413e+001
1.002358e+001
1.002299e+001
1.002237e+001
1.002172e+001
1.002103e+001
1.002031e+001
1.001955e+001
1.001877e+001
1.001796e+001
1.001712e+001
1.001625e+001
1.001536e+001
1.001445e+001
1.001351e+001
1.001255e+001
1.001158e+001
1.001058e+001
1.000957e+001
1.000855e+001
1.000751e+001
1.000646e+001
1.000539e+001
1.000433e+001
1.000325e+001
1.000217e+001
1.000109e+001
1.000000e+001
1.000000e+001
1.000123e+001
1.000245e+001
1.000367e+001
1.000489e+001
1.000610e+001
1.000729e+001
1.000848e+001
1.000966e+001
1.001081e+001
1.001196e+001
1.001308e+001
1.001418e+001
1.001527e+001
1.001633e+001
1.001736e+001
1.001836e+001
1.001934e+001
1.002029e+001
1.002121e+001
1.002209e+001
1.002294e+001
1.002376e+001
1.002454e+001
1.002528e+001
1.002598e+001
1.002664e+001
1.002726e+001
1.002784e+001
1.002837e+001
1.002887e+001
1.002931e+001
1.002972e+001
1.003007e+001
1.003038e+001
1.003064e+001
1.003086e+001
1.003103e+001
1.003115e+001
1.003122e+001
1.003124e+001
1.003122e+001
1.003115e+001
1.003103e+001
1.003086e+001
1.003064e+001
1.003038e+001
1.003007e+001
1.002972e+001
1.002931e+001
1.002887e+001
1.002837e+001
1.002784e+001
1.002726e+001
1.002664e+001
1.002598e+001
1.002528e+001
1.002454e+001
1.002376e+001
1.002294e+001
1.002209e+001
1.002121e+001
1.002029e+001
1.001934e+001
1.001836e+001
1.001736e+001
1.001633e+001
1.001527e+001
1.001418e+001
1.001308e+001
1.001196e+001
1.001081e+001
1.000966e+001
1.000848e+001
1.000729e+001
1.000610e+001
1.000489e+001
1.000367e+001
1.000245e+001
1.000123e+001
1.000000e+001
1.000000e+001
1.000137e+001
1.000274e+001
1.000410e+001
1.000546e+001
1.000681e+001
1.000814e+001
1.000947e+001
1.001078e+001
1.001207e+001
1.001335e+001
1.001460e+001
1.001584e+001
1.001705e+001
1.001823e+001
1.001938e+001
1.002050e+001
1.002160e+001
1.002266e+001
1.002368e+001
1.002467e+001
1.002562e+001
1.002653e+001
1.002740e+001
1.002822e+001
1.002901e+001
1.002974e+001
1.003044e+001
1.003108e+001
1.003168e+001
1.003223e+001
1.003273e+001
1.003318e+001
1.003357e+001
1.003392e+001
1.003421e+001
1.003445e+001
1.003464e+001
1.003478e+001
1.003486e+001
1.003488e+001
1.003486e+001
1.003478e+001
1.003464e+001
1.003445e+001
1.003421e+001
1.003392e+001
1.003357e+001
1.003318e+001
1.003273e+001
1.003223e+001
1.003168e+001
1.003108e+001
1.003044e+001
1.002974e+001
1.002901e+001
1.002822e+001
1.002740e+001
1.002653e+001
1.002562e+001
1.002467e+001
1.002368e+001
1.002266e+001
1.002160e+001
1.002050e+001
1.001938e+001
1.001823e+001
1.001705e+001
1.001584e+001
1.001460e+001
1.001335e+001
1.001207e+001
1.001078e+001
1.000947e+001
1.000814e+001
1.000681e+001
1.000546e+001
1.000410e+001
1.000274e+001
1.000137e+001
1.000000e+001
1.000000e+001
1.000151e+001
1.000303e+001
1.000453e+001
1.000603e+001
1.000753e+001
1.000901e+001
1.001047e+001
1.001192e+001
1.001335e+001
1.001476e+001
1.001615e+001
1.001751e+001
1.001885e+001
1.002016e+001
1.002143e+001
1.002268e+001
1.002388e+001
1.002505e+001
1.002619e+001
1.002728e+001
1.002833e+001
1.002934e+001
1.003030e+001
1.003121e+001
1.003208e+001
1.003289e+001
1.003366e+001
1.003437e+001
1.003503e+001
1.003564e+001
1.003619e+001
1.003669e+001
1.003713e+001
1.003751e+001
1.003784e+001
1.003810e+001
1.003831e+001
1.003846e+001
1.003855e+001
1.003858e+001
1.003855e+001
1.003846e+001
1.003831e+001
1.003810e+001
1.003784e+001
1.003751e+001
1.003713e+001
1.003669e+001
1.003619e+001
1.003564e+001
1.003503e+001
1.003437e+001
1.003366e+001
1.003289e+001
1.003208e+001
1.003121e+001
1.003030e+001
1.002934e+001
1.002833e+001
1.002728e+001
1.002619e+001
1.002505e+001
1.002388e+001
1.002268e+001
1.002143e+001
1.002016e+001
1.001885e+001
1.001751e+001
1.001615e+001
1.001476e+001
1.001335e+001
1.001192e+001
1.001047e+001
1.000901e+001
1.000753e+001
1.000603e+001
1.000453e+001
1.000303e+001
1.000151e+001
1.000000e+001
1.000000e+001
1.000166e+001
1.000332e+001
1.000498e+001
1.000662e+001
1.000826e+001
1.000988e+001
1.001149e+001
1.001308e+001
1.001465e+001
1.001620e+001
1.001772e+001
1.001922e+001
1.002068e+001
1.002212e+001
1.002352e+001
1.002488e+001
1.002621e+001
1.002749e+001
1.002873e+001
1.002993e+001
1.003108e+001
1.003219e+001
1.003324e+001
1.003425e+001
1.003520e+001
1.003609e+001
1.003693e+001
1.003772e+001
1.003844e+001
1.003911e+001
1.003971e+001
1.004026e+001
1.004074e+001
1.004116e+001
1.004152e+001
1.004181e+001
1.004204e+001
1.004220e+001
1.004230e+001
1.004233e+001
1.004230e+001
1.004220e+001
1.004204e+001
1.004181e+001
1.004152e+001
1.004116e+001
1.004074e+001
1.004026e+001
1.003971e+001
1.003911e+001
1.003844e+001
1.003772e+001
1.003693e+001
1.003609e+001
1.003520e+001
1.003425e+001
1.003324e+001
1.003219e+001
1.003108e+001
1.002993e+001
1.002873e+001
1.002749e+001
1.002621e+001
1.002488e+001
1.002352e+001
1.002212e+001
1.002068e+001
1.001922e+001
1.001772e+001
1.001620e+001
1.001465e+001
1.001308e+001
1.001149e+001
1.000988e+001
1.000826e+001
1.000662e+001
1.000498e+001
1.000332e+001
1.000166e+001
1.000000e+001
1.000000e+001
1.000181e+001
1.000362e+001
1.000542e+001
1.000722e+001
1.000900e+001
1.001077e+001
1.001253e+001
1.001426e+001
1.001597e+001
1.001766e+001
1.001932e+001
1.002095e+001
1.002255e+001
1.002411e+001
1.002564e+001
1.002713e+001
1.002857e+001
1.002997e+001
1.003133e+001
1.003263e+001
1.003389e+001
1.003509e+001
1.003624e+001
1.003734e+001
1.003837e+001
1.003935e+001
1.004027e+001
1.004112e+001
1.004191e+001
1.004264e+001
1.004330e+001
1.004389e+001
1.004442e+001
1.004487e+001
1.004526e+001
1.004558e+001
1.004583e+001
1.004601e+001
1.004611e+001
1.004615e+001
1.004611e+001
1.004601e+001
1.004583e+001
1.004558e+001
1.004526e+001
1.004487e+001
1.004442e+001
1.004389e+001
1.004330e+001
1.004264e+001
1.004191e+001
1.004112e+001
1.004027e+001
1.003935e+001
1.003837e+001
1.003734e+001
1.003624e+001
1.003509e+001
1.003389e+001
1.003263e+001
1.003133e+001
1.002997e+001
1.002857e+001
1.002713e+001
1.002564e+001
1.002411e+001
1.002255e+001
1.002095e+001
1.001932e+001
1.001766e+001
1.001597e+001
1.001426e+001
1.001253e+001
1.001077e+001
1.000900e+001
1.000722e+001
1.000542e+001
1.000362e+001
1.000181e+001
1.000000e+001
1.000000e+001
1.000196e+001
1.000393e+001
1.000588e+001
1.000783e+001
1.000976e+001
1.001168e+001
1.001358e+001
1.001546e+001
1.001732e+001
1.001915e+001
1.002095e+001
1.002272e+001
1.002445e+001
1.002615e+001
1.002780e+001
1.002941e+001
1.003098e+001
1.003250e+001
1.003397e+001
1.003538e+001
1.003675e+001
1.003805e+001
1.003930e+001
1.004048e+001
1.004161e+001
1.004267e+001
1.004366e+001
1.004459e+001
1.004544e+001
1.004623e+001
1.004695e+001
1.004759e+001
1.004816e+001
1.004866e+001
1.004908e+001
1.004942e+001
1.004969e+001
1.004989e+001
1.005000e+001
1.005004e+001
1.005000e+001
1.004989e+001
1.004969e+001
1.004942e+001
1.004908e+001
1.004866e+001
1.004816e+001
1.004759e+001
1.004695e+001
1.004623e+001
1.004544e+001
1.004459e+001
1.004366e+001
1.004267e+001
1.004161e+001
1.004048e+001
1.003930e+001
1.003805e+001
1.003675e+001
1.003538e+001
1.003397e+001
1.003250e+001
1.003098e+001
1.002941e+001
1.002780e+001
1.002615e+001
1.002445e+001
1.002272e+001
1.002095e+001
1.001915e+001
1.001732e+001
1.001546e+001
1.001358e+001
1.001168e+001
1.000976e+001
1.000783e+001
1.000588e+001
1.000393e+001
1.000196e+001
1.000000e+001
1.000000e+001
1.000212e+001
1.000424e+001
1.000635e+001
1.000845e+001
1.001054e+001
1.001261e+001
1.001466e+001
1.001669e+001
1.001869e+001
1.002067e+001
1.002261e+001
1.002452e+001
1.002639e+001
1.002822e+001
1.003000e+001
1.003174e+001
1.003344e+001
1.003507e+001
1.003666e+001
1.003819e+001
1.003966e+001
1.004107e+001
1.004241e+001
1.004369e+001
1.004490e+001
1.004605e+001
1.004712e+001
1.004812e+001
1.004905e+001
1.004990e+001
1.005067e+001
1.005136e+001
1.005198e+001
1.005251e+001
1.005297e+001
1.005334e+001
1.005363e+001
1.005384e+001
1.005397e+001
1.005401e+001
1.005397e+001
1.005384e+001
1.005363e+001
1.005334e+001
1.005297e+001
1.005251e+001
1.005198e+001
1.005136e+001
1.005067e+001
1.004990e+001
1.004905e+001
1.004812e+001
1.004712e+001
1.004605e+001
1.004490e+001
1.004369e+001
1.004241e+001
1.004107e+001
1.003966e+001
1.003819e+001
1.003666e+001
1.003507e+001
1.003344e+001
1.003174e+001
1.003000e+001
1.002822e+001
1.002639e+001
1.002452e+001
1.002261e+001
1.002067e+001
1.001869e+001
1.001669e+001
1.001466e+001
1.001261e+001
1.001054e+001
1.000845e+001
1.000635e+001
1.000424e+001
1.000212e+001
1.000000e+001
1.000000e+001
1.000228e+001
1.000456e+001
1.000682e+001
1.000908e+001
1.001133e+001
1.001355e+001
1.001576e+001
1.001794e+001
1.002009e+001
1.002222e+001
1.002431e+001
1.002636e+001
1.002837e+001
1.003033e+001
1.003225e+001
1.003412e+001
1.003594e+001
1.003770e+001
1.003941e+001
1.004105e+001
1.004263e+001
1.004415e+001
1.004559e+001
1.004697e+001
1.004827e+001
1.004950e+001
1.005065e+001
1.005173e+001
1.005272e+001
1.005364e+001
1.005447e+001
1.005522e+001
1.005588e+001
1.005645e+001
1.005694e+001
1.005734e+001
1.005765e+001
1.005788e+001
1.005801e+001
1.005806e+001
1.005801e+001
1.005788e+001
1.005765e+001
1.005734e+001
1.005694e+001
1.005645e+001
1.005588e+001
1.005522e+001
1.005447e+001
1.005364e+001
1.005272e+001
1.005173e+001
1.005065e+001
1.004950e+001
1.004827e+001
1.004697e+001
1.004559e+001
1.004415e+001
1.004263e+001
1.004105e+001
1.003941e+001
1.003770e+001
1.003594e+001
1.003412e+001
1.003225e+001
1.003033e+001
1.002837e+001
1.002636e+001
1.002431e+001
1.002222e+001
1.002009e+001
1.001794e+001
1.001576e+001
1.001355e+001
1.001133e+001
1.000908e+001
1.000682e+001
1.000456e+001
1.000228e+001
1.000000e+001
1.000000e+001
1.000244e+001
1.000488e+001
1.000731e+001
1.000973e+001
1.001213e+001
1.001452e+001
1.001688e+001
1.001922e+001
1.002153e+001
1.002380e+001
1.002604e+001
1.002824e+001
1.003039e+001
1.003250e+001
1.003455e+001
1.003656e+001
1.003851e+001
1.004039e+001
1.004222e+001
1.004398e+001
1.004567e+001
1.004729e+001
1.004884e+001
1.005032e+001
1.005171e+001
1.005303e+001
1.005427e+001
1.005542e+001
1.005648e+001
1.005746e+001
1.005835e+001
1.005915e+001
1.005986e+001
1.006048e+001
1.006100e+001
1.006143e+001
1.006177e+001
1.006200e+001
1.006215e+001
1.006220e+001
1.006215e+001
1.006200e+001
1.006177e+001
1.006143e+001
1.006100e+001
1.006048e+001
1.005986e+001
1.005915e+001
1.005835e+001
1.005746e+001
1.005648e+001
1.005542e+001
1.005427e+001
1.005303e+001
1.005171e+001
1.005032e+001
1.004884e+001
1.004729e+001
1.004567e+001
1.004398e+001
1.004222e+001
1.004039e+001
1.003851e+001
1.003656e+001
1.003455e+001
1.003250e+001
1.003039e+001
1.002824e+001
1.002604e+001
1.002380e+001
1.002153e+001
1.001922e+001
1.001688e+001
1.001452e+001
1.001213e+001
1.000973e+001
1.000731e+001
1.000488e+001
1.000244e+001
1.000000e+001
1.000000e+001
1.000261e+001
1.000521e+001
1.000781e+001
1.001039e+001
1.001296e+001
1.001551e+001
1.001803e+001
1.002053e+001
1.002299e+001
1.002542e+001
1.002781e+001
1.003016e+001
1.003246e+001
1.003471e+001
1.003691e+001
1.003905e+001
1.004113e+001
1.004314e+001
1.004509e+001
1.004697e+001
1.004878e+001
1.005052e+001
1.005217e+001
1.005374e+001
1.005524e+001
1.005664e+001
1.005796e+001
1.005919e+001
1.006033e+001
1.006138e+001
1.006233e+001
1.006318e+001
1.006394e+001
1.006460e+001
1.006516e+001
1.006561e+001
1.006597e+001
1.006623e+001
1.006638e+001
1.006643e+001
1.006638e+001
1.006623e+001
1.006597e+001
1.006561e+001
1.006516e+001
1.006460e+001
1.006394e+001
1.006318e+001
1.006233e+001
1.006138e+001
1.006033e+001
1.005919e+001
1.005796e+001
1.005664e+001
1.005524e+001
1.005374e+001
1.005217e+001
1.005052e+001
1.004878e+001
1.004697e+001
1.004509e+001
1.004314e+001
1.004113e+001
1.003905e+001
1.003691e+001
1.003471e+001
1.003246e+001
1.003016e+001
1.002781e+001
1.002542e+001
1.002299e+001
1.002053e+001
1.001803e+001
1.001551e+001
1.001296e+001
1.001039e+001
1.000781e+001
1.000521e+001
1.000261e+001
1.000000e+001
1.000000e+001
1.000278e+001
1.000555e+001
1.000832e+001
1.001107e+001
1.001381e+001
1.001652e+001
1.001921e+001
1.002187e+001
1.002449e+001
1.002708e+001
1.002963e+001
1.003213e+001
1.003458e+001
1.003698e+001
1.003932e+001
1.004160e+001
1.004381e+001
1.004596e+001
1.004804e+001
1.005004e+001
1.005197e+001
1.005381e+001
1.005558e+001
1.005725e+001
1.005884e+001
1.006034e+001
1.006175e+001
1.006306e+001
1.006427e+001
1.006538e+001
1.006640e+001
1.006731e+001
1.006811e+001
1.006882e+001
1.006941e+001
1.006990e+001
1.007028e+001
1.007055e+001
1.007072e+001
1.007077e+001
1.007072e+001
1.007055e+001
1.007028e+001
1.006990e+001
1.006941e+001
1.006882e+001
1.006811e+001
1.006731e+001
1.006640e+001
1.006538e+001
1.006427e+001
1.006306e+001
1.006175e+001
1.006034e+001
1.005884e+001
1.005725e+001
1.005558e+001
1.005381e+001
1.005197e+001
1.005004e+001
1.004804e+001
1.004596e+001
1.004381e+001
1.004160e+001
1.003932e+001
1.003698e+001
1.003458e+001
1.003213e+001
1.002963e+001
1.002708e+001
1.002449e+001
1.002187e+001
1.001921e+001
1.001652e+001
1.001381e+001
1.001107e+001
1.000832e+001
1.000555e+001
1.000278e+001
1.000000e+001
1.000000e+001
1.000295e+001
1.000590e+001
1.000884e+001
1.001177e+001
1.001467e+001
1.001756e+001
1.002042e+001
1.002324e+001
1.002603e+001
1.002878e+001
1.003149e+001
1.003415e+001
1.003675e+001
1.003930e+001
1.004179e+001
1.004421e+001
1.004657e+001
1.004885e+001
1.005106e+001
1.005319e+001
1.005523e+001
1.005720e+001
1.005907e+001
1.006085e+001
1.006254e+001
1.006413e+001
1.006563e+001
1.006702e+001
1.006831e+001
1.006949e+001
1.007057e+001
1.007154e+001
1.007239e+001
1.007314e+001
1.007377e+001
1.007429e+001
1.007470e+001
1.007499e+001
1.007516e+001
1.007522e+001
1.007516e+001
1.007499e+001
1.007470e+001
1.007429e+001
1.007377e+001
1.007314e+001
1.007239e+001
1.007154e+001
1.007057e+001
1.006949e+001
1.006831e+001
1.006702e+001
1.006563e+001
1.006413e+001
1.006254e+001
1.006085e+001
1.005907e+001
1.005720e+001
1.005523e+001
1.005319e+001
1.005106e+001
1.004885e+001
1.004657e+001
1.004421e+001
1.004179e+001
1.003930e+001
1.003675e+001
1.003415e+001
1.003149e+001
1.002878e+001
1.002603e+001
1.002324e+001
1.002042e+001
1.001756e+001
1.001467e+001
1.001177e+001
1.000884e+001
1.000590e+001
1.000295e+001
1.000000e+001
1.000000e+001
1.000313e+001
1.000626e+001
1.000938e+001
1.001248e+001
1.001556e+001
1.001862e+001
1.002166e+001
1.002465e+001
1.002761e+001
1.003053e+001
1.003340e+001
1.003622e+001
1.003898e+001
1.004169e+001
1.004432e+001
1.004689e+001
1.004939e+001
1.005181e+001
1.005416e+001
1.005641e+001
1.005859e+001
1.006067e+001
1.006265e+001
1.006454e+001
1.006634e+001
1.006802e+001
1.006961e+001
1.007109e+001
1.007245e+001
1.007371e+001
1.007485e+001
1.007588e+001
1.007679e+001
1.007758e+001
1.007825e+001
1.007880e+001
1.007923e+001
1.007954e+001
1.007972e+001
1.007978e+001
1.007972e+001
1.007954e+001
1.007923e+001
1.007880e+001
1.007825e+001
1.007758e+001
1.007679e+001
1.007588e+001
1.007485e+001
1.007371e+001
1.007245e+001
1.007109e+001
1.006961e+001
1.006802e+001
1.006634e+001
1.006454e+001
1.006265e+001
1.006067e+001
1.005859e+001
1.005641e+001
1.005416e+001
1.005181e+001
1.004939e+001
1.004689e+001
1.004432e+001
1.004169e+001
1.003898e+001
1.003622e+001
1.003340e+001
1.003053e+001
1.002761e+001
1.002465e+001
1.002166e+001
1.001862e+001
1.001556e+001
1.001248e+001
1.000938e+001
1.000626e+001
1.000313e+001
1.000000e+001
1.000000e+001
1.000332e+001
1.000663e+001
1.000993e+001
1.001321e+001
1.001648e+001
1.001972e+001
1.002293e+001
1.002610e+001
1.002924e+001
1.003232e+001
1.003536e+001
1.003835e+001
1.004127e+001
1.004413e+001
1.004693e+001
1.004965e+001
1.005229e+001
1.005486e+001
1.005734e+001
1.005973e+001
1.006203e+001
1.006423e+001
1.006633e+001
1.006834e+001
1.007023e+001
1.007202e+001
1.007370e+001
1.007526e+001
1.007671e+001
1.007804e+001
1.007925e+001
1.008033e+001
1.008130e+001
1.008213e+001
1.008284e+001
1.008343e+001
1.008388e+001
1.008421e+001
1.008440e+001
1.008447e+001
1.008440e+001
1.008421e+001
1.008388e+001
1.008343e+001
1.008284e+001
1.008213e+001
1.008130e+001
1.008033e+001
1.007925e+001
1.007804e+001
1.007671e+001
1.007526e+001
1.007370e+001
1.007202e+001
1.007023e+001
1.006834e+001
1.006633e+001
1.006423e+001
1.006203e+001
1.005973e+001
1.005734e+001
1.005486e+001
1.005229e+001
1.004965e+001
1.004693e+001
1.004413e+001
1.004127e+001
1.003835e+001
1.003536e+001
1.003232e+001
1.002924e+001
1.002610e+001
1.002293e+001
1.001972e+001
1.001648e+001
1.001321e+001
1.000993e+001
1.000663e+001
1.000332e+001
1.000000e+001
1.000000e+001
1.000351e+001
1.000701e+001
1.001049e+001
1.001397e+001
1.001742e+001
1.002084e+001
1.002424e+001
1.002759e+001
1.003090e+001
1.003417e+001
1.003738e+001
1.004053e+001
1.004363e+001
1.004665e+001
1.004960e+001
1.005248e+001
1.005528e+001
1.005799e+001
1.006061e+001
1.006313e+001
1.006556e+001
1.006789e+001
1.007012e+001
1.007223e+001
1.007424e+001
1.007613e+001
1.007790e+001
1.007955e+001
1.008108e+001
1.008249e+001
1.008377e+001
1.008491e+001
1.008593e+001
1.008682e+001
1.008757e+001
1.008818e+001
1.008867e+001
1.008901e+001
1.008922e+001
1.008928e+001
1.008922e+001
1.008901e+001
1.008867e+001
1.008818e+001
1.008757e+001
1.008682e+001
1.008593e+001
1.008491e+001
1.008377e+001
1.008249e+001
1.008108e+001
1.007955e+001
1.007790e+001
1.007613e+001
1.007424e+001
1.007223e+001
1.007012e+001
1.006789e+001
1.006556e+001
1.006313e+001
1.006061e+001
1.005799e+001
1.005528e+001
1.005248e+001
1.004960e+001
1.004665e+001
1.004363e+001
1.004053e+001
1.003738e+001
1.003417e+001
1.003090e+001
1.002759e+001
1.002424e+001
1.002084e+001
1.001742e+001
1.001397e+001
1.001049e+001
1.000701e+001
1.000351e+001
1.000000e+001
1.000000e+001
1.000370e+001
1.000739e+001
1.001108e+001
1.001474e+001
1.001839e+001
1.002200e+001
1.002558e+001
1.002912e+001
1.003262e+001
1.003606e+001
1.003945e+001
1.004278e+001
1.004605e+001
1.004924e+001
1.005236e+001
1.005539e+001
1.005834e+001
1.006120e+001
1.006397e+001
1.006664e+001
1.006920e+001
1.007166e+001
1.007401e+001
1.007624e+001
1.007836e+001
1.008035e+001
1.008222e+001
1.008397e+001
1.008558e+001
1.008707e+001
1.008841e+001
1.008963e+001
1.009070e+001
1.009163e+001
1.009243e+001
1.009308e+001
1.009359e+001
1.009395e+001
1.009417e+001
1.009424e+001
1.009417e+001
1.009395e+001
1.009359e+001
1.009308e+001
1.009243e+001
1.009163e+001
1.009070e+001
1.008963e+001
1.008841e+001
1.008707e+001
1.008558e+001
1.008397e+001
1.008222e+001
1.008035e+001
1.007836e+001
1.007624e+001
1.007401e+001
1.007166e+001
1.006920e+001
1.006664e+001
1.006397e+001
1.006120e+001
1.005834e+001
1.005539e+001
1.005236e+001
1.004924e+001
1.004605e+001
1.004278e+001
1.003945e+001
1.003606e+001
1.003262e+001
1.002912e+001
1.002558e+001
1.002200e+001
1.001839e+001
1.001474e+001
1.001108e+001
1.000739e+001
1.000370e+001
1.000000e+001
1.000000e+001
1.000390e+001
1.000779e+001
1.001168e+001
1.001554e+001
1.001938e+001
1.002319e+001
1.002696e+001
1.003070e+001
1.003438e+001
1.003802e+001
1.004159e+001
1.004510e+001
1.004854e+001
1.005190e+001
1.005519e+001
1.005839e+001
1.006150e+001
1.006451e+001
1.006743e+001
1.007024e+001
1.007295e+001
1.007554e+001
1.007801e+001
1.008037e+001
1.008260e+001
1.008470e+001
1.008667e+001
1.008851e+001
1.009021e+001
1.009178e+001
1.009320e+001
1.009448e+001
1.009561e+001
1.009659e+001
1.009743e+001
1.009812e+001
1.009865e+001
1.009903e+001
1.009926e+001
1.009934e+001
1.009926e+001
1.009903e+001
1.009865e+001
1.009812e+001
1.009743e+001
1.009659e+001
1.009561e+001
1.009448e+001
1.009320e+001
1.009178e+001
1.009021e+001
1.008851e+001
1.008667e+001
1.008470e+001
1.008260e+001
1.008037e+001
1.007801e+001
1.007554e+001
1.007295e+001
1.007024e+001
1.006743e+001
1.006451e+001
1.006150e+001
1.005839e+001
1.005519e+001
1.005190e+001
1.004854e+001
1.004510e+001
1.004159e+001
1.003802e+001
1.003438e+001
1.003070e+001
1.002696e+001
1.002319e+001
1.001938e+001
1.001554e+001
1.001168e+001
1.000779e+001
1.000390e+001
1.000000e+001
1.000000e+001
1.000411e+001
1.000821e+001
1.001229e+001
1.001636e+001
1.002040e+001
1.002442e+001
1.002839e+001
1.003232e+001
1.003620e+001
1.004003e+001
1.004379e+001
1.004748e+001
1.005111e+001
1.005465e+001
1.005811e+001
1.006148e+001
1.006475e+001
1.006793e+001
1.007100e+001