# vtk DataFile Version 3.0
steady_diffusion_2D
ASCII
DATASET STRUCTURED_POINTS
DIMENSIONS 11 11 1
ORIGIN 0.0 0.0 0.0
SPACING 0.1 0.1 1.0
POINT_DATA 121
SCALARS Temperature double 1
LOOKUP_TABLE default
1.000000e+001
1.000000e+001
1.000000e+001
1.000000e+001
1.000000e+001
1.000000e+001
1.000000e+001
1.000000e+001
1.000000e+001
1.000000e+001
1.000000e+001
1.000000e+001
1.000869e+001
1.001654e+001
1.002276e+001
1.002676e+001
1.002813e+001
1.002676e+001
1.002276e+001
1.001654e+001
1.000869e+001
1.000000e+001
1.000000e+001
1.001824e+001
1.003469e+001
1.004775e+001
1.005613e+001
1.005902e+001
1.005613e+001
1.004775e+001
1.003469e+001
1.001824e+001
1.000000e+001
1.000000e+001
1.002957e+001
1.005624e+001
1.007741e+001
1.009100e+001
1.009568e+001
1.009100e+001
1.007741e+001
1.005624e+001
1.002957e+001
1.000000e+001
1.000000e+001
1.004379e+001
1.008330e+001
1.011465e+001
1.013478e+001
1.014171e+001
1.013478e+001
1.011465e+001
1.008330e+001
1.004379e+001
1.000000e+001
1.000000e+001
1.006230e+001
1.011850e+001
1.016311e+001
1.019174e+001
1.020161e+001
1.019174e+001
1.016311e+001
1.011850e+001
1.006230e+001
1.000000e+001
1.000000e+001
1.008691e+001
1.016531e+001
1.022753e+001
1.026748e+001
1.028125e+001
1.026748e+001
1.022753e+001
1.016531e+001
1.008691e+001
1.000000e+001
1.000000e+001
1.012003e+001
1.022830e+001
1.031423e+001
1.036940e+001
1.038841e+001
1.036940e+001
1.031423e+001
1.022830e+001
1.012003e+001
1.000000e+001
1.000000e+001
1.016489e+001
1.031364e+001
1.043169e+001
1.050749e+001
1.053360e+001
1.050749e+001
1.043169e+001
1.031364e+001
1.016489e+001
1.000000e+001
1.000000e+001
1.022590e+001
1.042968e+001
1.059141e+001
1.069524e+001
1.073102e+001
1.069524e+001
1.059141e+001
1.042968e+001
1.022590e+001
1.000000e+001
1.000000e+001
1.030902e+001
1.058779e+001
1.080902e+001
1.095106e+001
1.100000e+001
1.095106e+001
1.080902e+001
1.058779e+001
1.030902e+001
1.000000e+001
