# vtk DataFile Version 3.0
9 points difference shceme(4-order bound)
ASCII
DATASET STRUCTURED_POINTS
DIMENSIONS 41 41 1
ORIGIN 0.0 0.0 0.0
SPACING 0.025 0.025 1.0
POINT_DATA 1681
SCALARS Temperature double 1
LOOKUP_TABLE default
1.000000e+01
1.000000e+01
1.000000e+01
1.000000e+01
1.000000e+01
1.000000e+01
1.000000e+01
1.000000e+01
1.000000e+01
1.000000e+01
1.000000e+01
1.000000e+01
1.000000e+01
1.000000e+01
1.000000e+01
1.000000e+01
1.000000e+01
1.000000e+01
1.000000e+01
1.000000e+01
1.000000e+01
1.000000e+01
1.000000e+01
1.000000e+01
1.000000e+01
1.000000e+01
1.000000e+01
1.000000e+01
1.000000e+01
1.000000e+01
1.000000e+01
1.000000e+01
1.000000e+01
1.000000e+01
1.000000e+01
1.000000e+01
1.000000e+01
1.000000e+01
1.000000e+01
1.000000e+01
1.000000e+01
1.000000e+01
1.000053e+01
1.000106e+01
1.000159e+01
1.000210e+01
1.000260e+01
1.000309e+01
1.000355e+01
1.000399e+01
1.000441e+01
1.000481e+01
1.000517e+01
1.000550e+01
1.000579e+01
1.000606e+01
1.000628e+01
1.000646e+01
1.000661e+01
1.000671e+01
1.000677e+01
1.000680e+01
1.000677e+01
1.000671e+01
1.000661e+01
1.000646e+01
1.000628e+01
1.000606e+01
1.000579e+01
1.000550e+01
1.000517e+01
1.000481e+01
1.000441e+01
1.000399e+01
1.000355e+01
1.000309e+01
1.000260e+01
1.000210e+01
1.000159e+01
1.000106e+01
1.000053e+01
1.000000e+01
1.000000e+01
1.000107e+01
1.000214e+01
1.000319e+01
1.000422e+01
1.000522e+01
1.000620e+01
1.000713e+01
1.000802e+01
1.000886e+01
1.000965e+01
1.001038e+01
1.001104e+01
1.001163e+01
1.001216e+01
1.001261e+01
1.001298e+01
1.001327e+01
1.001348e+01
1.001360e+01
1.001364e+01
1.001360e+01
1.001348e+01
1.001327e+01
1.001298e+01
1.001261e+01
1.001216e+01
1.001163e+01
1.001104e+01
1.001038e+01
1.000965e+01
1.000886e+01
1.000802e+01
1.000713e+01
1.000620e+01
1.000522e+01
1.000422e+01
1.000319e+01
1.000214e+01
1.000107e+01
1.000000e+01
1.000000e+01
1.000162e+01
1.000322e+01
1.000481e+01
1.000636e+01
1.000788e+01
1.000934e+01
1.001075e+01
1.001210e+01
1.001337e+01
1.001455e+01
1.001565e+01
1.001665e+01
1.001755e+01
1.001834e+01
1.001901e+01
1.001957e+01
1.002001e+01
1.002032e+01
1.002051e+01
1.002058e+01
1.002051e+01
1.002032e+01
1.002001e+01
1.001957e+01
1.001901e+01
1.001834e+01
1.001755e+01
1.001665e+01
1.001565e+01
1.001455e+01
1.001337e+01
1.001210e+01
1.001075e+01
1.000934e+01
1.000788e+01
1.000636e+01
1.000481e+01
1.000322e+01
1.000162e+01
1.000000e+01
1.000000e+01
1.000217e+01
1.000433e+01
1.000646e+01
1.000854e+01
1.001058e+01
1.001255e+01
1.001444e+01
1.001625e+01
1.001795e+01
1.001954e+01
1.002102e+01
1.002236e+01
1.002357e+01
1.002463e+01
1.002553e+01
1.002629e+01
1.002687e+01
1.002730e+01
1.002755e+01
1.002764e+01
1.002755e+01
1.002730e+01
1.002687e+01
1.002629e+01
1.002553e+01
1.002463e+01
1.002357e+01
1.002236e+01
1.002102e+01
1.001954e+01
1.001795e+01
1.001625e+01
1.001444e+01
1.001255e+01
1.001058e+01
1.000854e+01
1.000646e+01
1.000433e+01
1.000217e+01
1.000000e+01
1.000000e+01
1.000274e+01
1.000546e+01
1.000814e+01
1.001078e+01
1.001335e+01
1.001583e+01
1.001822e+01
1.002050e+01
1.002265e+01
1.002466e+01
1.002652e+01
1.002821e+01
1.002973e+01
1.003107e+01
1.003222e+01
1.003316e+01
1.003391e+01
1.003444e+01
1.003476e+01
1.003487e+01
1.003476e+01
1.003444e+01
1.003391e+01
1.003316e+01
1.003222e+01
1.003107e+01
1.002973e+01
1.002821e+01
1.002652e+01
1.002466e+01
1.002265e+01
1.002050e+01
1.001822e+01
1.001583e+01
1.001335e+01
1.001078e+01
1.000814e+01
1.000546e+01
1.000274e+01
1.000000e+01
1.000000e+01
1.000333e+01
1.000662e+01
1.000988e+01
1.001308e+01
1.001620e+01
1.001921e+01
1.002211e+01
1.002487e+01
1.002748e+01
1.002992e+01
1.003218e+01
1.003424e+01
1.003608e+01
1.003770e+01
1.003909e+01
1.004024e+01
1.004115e+01
1.004179e+01
1.004218e+01
1.004232e+01
1.004218e+01
1.004179e+01
1.004115e+01
1.004024e+01
1.003909e+01
1.003770e+01
1.003608e+01
1.003424e+01
1.003218e+01
1.002992e+01
1.002748e+01
1.002487e+01
1.002211e+01
1.001921e+01
1.001620e+01
1.001308e+01
1.000988e+01
1.000662e+01
1.000333e+01
1.000000e+01
1.000000e+01
1.000393e+01
1.000783e+01
1.001168e+01
1.001546e+01
1.001915e+01
1.002271e+01
1.002614e+01
1.002941e+01
1.003249e+01
1.003537e+01
1.003804e+01
1.004047e+01
1.004265e+01
1.004457e+01
1.004622e+01
1.004757e+01
1.004864e+01
1.004941e+01
1.004987e+01
1.005002e+01
1.004987e+01
1.004941e+01
1.004864e+01
1.004757e+01
1.004622e+01
1.004457e+01
1.004265e+01
1.004047e+01
1.003804e+01
1.003537e+01
1.003249e+01
1.002941e+01
1.002614e+01
1.002271e+01
1.001915e+01
1.001546e+01
1.001168e+01
1.000783e+01
1.000393e+01
1.000000e+01
1.000000e+01
1.000456e+01
1.000909e+01
1.001355e+01
1.001794e+01
1.002222e+01
1.002635e+01
1.003033e+01
1.003412e+01
1.003770e+01
1.004104e+01
1.004413e+01
1.004696e+01
1.004949e+01
1.005171e+01
1.005362e+01
1.005520e+01
1.005643e+01
1.005732e+01
1.005786e+01
1.005804e+01
1.005786e+01
1.005732e+01
1.005643e+01
1.005520e+01
1.005362e+01
1.005171e+01
1.004949e+01
1.004696e+01
1.004413e+01
1.004104e+01
1.003770e+01
1.003412e+01
1.003033e+01
1.002635e+01
1.002222e+01
1.001794e+01
1.001355e+01
1.000909e+01
1.000456e+01
1.000000e+01
1.000000e+01
1.000522e+01
1.001040e+01
1.001551e+01
1.002053e+01
1.002542e+01
1.003016e+01
1.003470e+01
1.003904e+01
1.004313e+01
1.004696e+01
1.005050e+01
1.005373e+01
1.005663e+01
1.005917e+01
1.006136e+01
1.006316e+01
1.006458e+01
1.006559e+01
1.006621e+01
1.006641e+01
1.006621e+01
1.006559e+01
1.006458e+01
1.006316e+01
1.006136e+01
1.005917e+01
1.005663e+01
1.005373e+01
1.005050e+01
1.004696e+01
1.004313e+01
1.003904e+01
1.003470e+01
1.003016e+01
1.002542e+01
1.002053e+01
1.001551e+01
1.001040e+01
1.000522e+01
1.000000e+01
1.000000e+01
1.000591e+01
1.001177e+01
1.001756e+01
1.002324e+01
1.002878e+01
1.003414e+01
1.003929e+01
1.004420e+01
1.004884e+01
1.005317e+01
1.005718e+01
1.006084e+01
1.006412e+01
1.006700e+01
1.006947e+01
1.007152e+01
1.007312e+01
1.007427e+01
1.007496e+01
1.007520e+01
1.007496e+01
1.007427e+01
1.007312e+01
1.007152e+01
1.006947e+01
1.006700e+01
1.006412e+01
1.006084e+01
1.005718e+01
1.005317e+01
1.004884e+01
1.004420e+01
1.003929e+01
1.003414e+01
1.002878e+01
1.002324e+01
1.001756e+01
1.001177e+01
1.000591e+01
1.000000e+01
1.000000e+01
1.000664e+01
1.001322e+01
1.001972e+01
1.002610e+01
1.003232e+01
1.003834e+01
1.004413e+01
1.004964e+01
1.005485e+01
1.005971e+01
1.006421e+01
1.006832e+01
1.007200e+01
1.007524e+01
1.007802e+01
1.008031e+01
1.008211e+01
1.008340e+01
1.008418e+01
1.008444e+01
1.008418e+01
1.008340e+01
1.008211e+01
1.008031e+01
1.007802e+01
1.007524e+01
1.007200e+01
1.006832e+01
1.006421e+01
1.005971e+01
1.005485e+01
1.004964e+01
1.004413e+01
1.003834e+01
1.003232e+01
1.002610e+01
1.001972e+01
1.001322e+01
1.000664e+01
1.000000e+01
1.000000e+01
1.000740e+01
1.001475e+01
1.002200e+01
1.002912e+01
1.003606e+01
1.004278e+01
1.004923e+01
1.005538e+01
1.006119e+01
1.006662e+01
1.007164e+01
1.007622e+01
1.008033e+01
1.008395e+01
1.008704e+01
1.008960e+01
1.009161e+01
1.009305e+01
1.009392e+01
1.009421e+01
1.009392e+01
1.009305e+01
1.009161e+01
1.008960e+01
1.008704e+01
1.008395e+01
1.008033e+01
1.007622e+01
1.007164e+01
1.006662e+01
1.006119e+01
1.005538e+01
1.004923e+01
1.004278e+01
1.003606e+01
1.002912e+01
1.002200e+01
1.001475e+01
1.000740e+01
1.000000e+01
1.000000e+01
1.000822e+01
1.001637e+01
1.002442e+01
1.003232e+01
1.004002e+01
1.004748e+01
1.005464e+01
1.006147e+01
1.006791e+01
1.007394e+01
1.007951e+01
1.008460e+01
1.008916e+01
1.009317e+01
1.009660e+01
1.009945e+01
1.010167e+01
1.010328e+01
1.010424e+01
1.010456e+01
1.010424e+01
1.010328e+01
1.010167e+01
1.009945e+01
1.009660e+01
1.009317e+01
1.008916e+01
1.008460e+01
1.007951e+01
1.007394e+01
1.006791e+01
1.006147e+01
1.005464e+01
1.004748e+01
1.004002e+01
1.003232e+01
1.002442e+01
1.001637e+01
1.000822e+01
1.000000e+01
1.000000e+01
1.000908e+01
1.001809e+01
1.002699e+01
1.003572e+01
1.004423e+01
1.005247e+01
1.006039e+01
1.006793e+01
1.007505e+01
1.008172e+01
1.008787e+01
1.009349e+01
1.009853e+01
1.010296e+01
1.010676e+01
1.010990e+01
1.011237e+01
1.011414e+01
1.011520e+01
1.011556e+01
1.011520e+01
1.011414e+01
1.011237e+01
1.010990e+01
1.010676e+01
1.010296e+01
1.009853e+01
1.009349e+01
1.008787e+01
1.008172e+01
1.007505e+01
1.006793e+01
1.006039e+01
1.005247e+01
1.004423e+01
1.003572e+01
1.002699e+01
1.001809e+01
1.000908e+01
1.000000e+01
1.000000e+01
1.001000e+01
1.001992e+01
1.002972e+01
1.003934e+01
1.004871e+01
1.005779e+01
1.006651e+01
1.007481e+01
1.008266e+01
1.009000e+01
1.009678e+01
1.010296e+01
1.010852e+01
1.011340e+01
1.011758e+01
1.012104e+01
1.012375e+01
1.012570e+01
1.012687e+01
1.012727e+01
1.012687e+01
1.012570e+01
1.012375e+01
1.012104e+01
1.011758e+01
1.011340e+01
1.010852e+01
1.010296e+01
1.009678e+01
1.009000e+01
1.008266e+01
1.007481e+01
1.006651e+01
1.005779e+01
1.004871e+01
1.003934e+01
1.002972e+01
1.001992e+01
1.001000e+01
1.000000e+01
1.000000e+01
1.001098e+01
1.002188e+01
1.003264e+01
1.004320e+01
1.005350e+01
1.006346e+01
1.007303e+01
1.008216e+01
1.009077e+01
1.009883e+01
1.010628e+01
1.011307e+01
1.011917e+01
1.012453e+01
1.012912e+01
1.013292e+01
1.013590e+01
1.013804e+01
1.013933e+01
1.013976e+01
1.013933e+01
1.013804e+01
1.013590e+01
1.013292e+01
1.012912e+01
1.012453e+01
1.011917e+01
1.011307e+01
1.010628e+01
1.009883e+01
1.009077e+01
1.008216e+01
1.007303e+01
1.006346e+01
1.005350e+01
1.004320e+01
1.003264e+01
1.002188e+01
1.001098e+01
1.000000e+01
1.000000e+01
1.001203e+01
1.002397e+01
1.003576e+01
1.004733e+01
1.005861e+01
1.006953e+01
1.008001e+01
1.009001e+01
1.009945e+01
1.010828e+01
1.011644e+01
1.012388e+01
1.013056e+01
1.013643e+01
1.014146e+01
1.014562e+01
1.014889e+01
1.015123e+01
1.015264e+01
1.015312e+01
1.015264e+01
1.015123e+01
1.014889e+01
1.014562e+01
1.014146e+01
1.013643e+01
1.013056e+01
1.012388e+01
1.011644e+01
1.010828e+01
1.009945e+01
1.009001e+01
1.008001e+01
1.006953e+01
1.005861e+01
1.004733e+01
1.003576e+01
1.002397e+01
1.001203e+01
1.000000e+01
1.000000e+01
1.001316e+01
1.002621e+01
1.003910e+01
1.005175e+01
1.006408e+01
1.007602e+01
1.008749e+01
1.009842e+01
1.010874e+01
1.011839e+01
1.012731e+01
1.013545e+01
1.014275e+01
1.014917e+01
1.015468e+01
1.015922e+01
1.016279e+01
1.016536e+01
1.016690e+01
1.016742e+01
1.016690e+01
1.016536e+01
1.016279e+01
1.015922e+01
1.015468e+01
1.014917e+01
1.014275e+01
1.013545e+01
1.012731e+01
1.011839e+01
1.010874e+01
1.009842e+01
1.008749e+01
1.007602e+01
1.006408e+01
1.005175e+01
1.003910e+01
1.002621e+01
1.001316e+01
1.000000e+01
1.000000e+01
1.001436e+01
1.002861e+01
1.004268e+01
1.005649e+01
1.006995e+01
1.008298e+01
1.009550e+01
1.010743e+01
1.011870e+01
1.012923e+01
1.013897e+01
1.014785e+01
1.015582e+01
1.016284e+01
1.016884e+01
1.017381e+01
1.017770e+01
1.018050e+01
1.018219e+01
1.018275e+01
1.018219e+01
1.018050e+01
1.017770e+01
1.017381e+01
1.016884e+01
1.016284e+01
1.015582e+01
1.014785e+01
1.013897e+01
1.012923e+01
1.011870e+01
1.010743e+01
1.009550e+01
1.008298e+01
1.006995e+01
1.005649e+01
1.004268e+01
1.002861e+01
1.001436e+01
1.000000e+01
1.000000e+01
1.001565e+01
1.003119e+01
1.004653e+01
1.006158e+01
1.007625e+01
1.009046e+01
1.010410e+01
1.011711e+01
1.012939e+01
1.014087e+01
1.015149e+01
1.016117e+01
1.016986e+01
1.017750e+01
1.018405e+01
1.018946e+01
1.019371e+01
1.019676e+01
1.019860e+01
1.019921e+01
1.019860e+01
1.019676e+01
1.019371e+01
1.018946e+01
1.018405e+01
1.017750e+01
1.016986e+01
1.016117e+01
1.015149e+01
1.014087e+01
1.012939e+01
1.011711e+01
1.010410e+01
1.009046e+01
1.007625e+01
1.006158e+01
1.004653e+01
1.003119e+01
1.001565e+01
1.000000e+01
1.000000e+01
1.001704e+01
1.003396e+01
1.005066e+01
1.006705e+01
1.008302e+01
1.009849e+01
1.011335e+01
1.012751e+01
1.014088e+01
1.015338e+01
1.016494e+01
1.017548e+01
1.018495e+01
1.019327e+01
1.020040e+01
1.020629e+01
1.021091e+01
1.021423e+01
1.021624e+01
1.021690e+01
1.021624e+01
1.021423e+01
1.021091e+01
1.020629e+01
1.020040e+01
1.019327e+01
1.018495e+01
1.017548e+01
1.016494e+01
1.015338e+01
1.014088e+01
1.012751e+01
1.011335e+01
1.009849e+01
1.008302e+01
1.006705e+01
1.005066e+01
1.003396e+01
1.001704e+01
1.000000e+01
1.000000e+01
1.001854e+01
1.003693e+01
1.005510e+01
1.007293e+01
1.009031e+01
1.010713e+01
1.012329e+01
1.013869e+01
1.015324e+01
1.016684e+01
1.017941e+01
1.019088e+01
1.020117e+01
1.021022e+01
1.021798e+01
1.022439e+01
1.022942e+01
1.023303e+01
1.023521e+01
1.023593e+01
1.023521e+01
1.023303e+01
1.022942e+01
1.022439e+01
1.021798e+01
1.021022e+01
1.020117e+01
1.019088e+01
1.017941e+01
1.016684e+01
1.015324e+01
1.013869e+01
1.012329e+01
1.010713e+01
1.009031e+01
1.007293e+01
1.005510e+01
1.003693e+01
1.001854e+01
1.000000e+01
1.000000e+01
1.002015e+01
1.004014e+01
1.005989e+01
1.007926e+01
1.009815e+01
1.011643e+01
1.013400e+01
1.015073e+01
1.016654e+01
1.018133e+01
1.019499e+01
1.020745e+01
1.021864e+01
1.022847e+01
1.023690e+01
1.024387e+01
1.024934e+01
1.025326e+01
1.025563e+01
1.025642e+01
1.025563e+01
1.025326e+01
1.024934e+01
1.024387e+01
1.023690e+01
1.022847e+01
1.021864e+01
1.020745e+01
1.019499e+01
1.018133e+01
1.016654e+01
1.015073e+01
1.013400e+01
1.011643e+01
1.009815e+01
1.007926e+01
1.005989e+01
1.004014e+01
1.002015e+01
1.000000e+01
1.000000e+01
1.002188e+01
1.004360e+01
1.006504e+01
1.008608e+01
1.010660e+01
1.012645e+01
1.014553e+01
1.016371e+01
1.018088e+01
1.019693e+01
1.021177e+01
1.022531e+01
1.023745e+01
1.024814e+01
1.025729e+01
1.026486e+01
1.027079e+01
1.027506e+01
1.027763e+01
1.027849e+01
1.027763e+01
1.027506e+01
1.027079e+01
1.026486e+01
1.025729e+01
1.024814e+01
1.023745e+01
1.022531e+01
1.021177e+01
1.019693e+01
1.018088e+01
1.016371e+01
1.014553e+01
1.012645e+01
1.010660e+01
1.008608e+01
1.006504e+01
1.004360e+01
1.002188e+01
1.000000e+01
1.000000e+01
1.002375e+01
1.004732e+01
1.007060e+01
1.009344e+01
1.011570e+01
1.013725e+01
1.015796e+01
1.017769e+01
1.019632e+01
1.021375e+01
1.022986e+01
1.024455e+01
1.025774e+01
1.026933e+01
1.027927e+01
1.028748e+01
1.029392e+01
1.029855e+01
1.030134e+01
1.030227e+01
1.030134e+01
1.029855e+01
1.029392e+01
1.028748e+01
1.027927e+01
1.026933e+01
1.025774e+01
1.024455e+01
1.022986e+01
1.021375e+01
1.019632e+01
1.017769e+01
1.015796e+01
1.013725e+01
1.011570e+01
1.009344e+01
1.007060e+01
1.004732e+01
1.002375e+01
1.000000e+01
1.000000e+01
1.002577e+01
1.005134e+01
1.007659e+01
1.010136e+01
1.012552e+01
1.014890e+01
1.017136e+01
1.019277e+01
1.021298e+01
1.023189e+01
1.024937e+01
1.026530e+01
1.027961e+01
1.029219e+01
1.030297e+01
1.031188e+01
1.031887e+01
1.032389e+01
1.032691e+01
1.032792e+01
1.032691e+01
1.032389e+01
1.031887e+01
1.031188e+01
1.030297e+01
1.029219e+01
1.027961e+01
1.026530e+01
1.024937e+01
1.023189e+01
1.021298e+01
1.019277e+01
1.017136e+01
1.014890e+01
1.012552e+01
1.010136e+01
1.007659e+01
1.005134e+01
1.002577e+01
1.000000e+01
1.000000e+01
1.002794e+01
1.005567e+01
1.008305e+01
1.010992e+01
1.013611e+01
1.016146e+01
1.018582e+01
1.020903e+01
1.023096e+01
1.025146e+01
1.027041e+01
1.028769e+01
1.030321e+01
1.031685e+01
1.032853e+01
1.033820e+01
1.034578e+01
1.035122e+01
1.035450e+01
1.035560e+01
1.035450e+01
1.035122e+01
1.034578e+01
1.033820e+01
1.032853e+01
1.031685e+01
1.030321e+01
1.028769e+01
1.027041e+01
1.025146e+01
1.023096e+01
1.020903e+01
1.018582e+01
1.016146e+01
1.013611e+01
1.010992e+01
1.008305e+01
1.005567e+01
1.002794e+01
1.000000e+01
1.000000e+01
1.003029e+01
1.006034e+01
1.009002e+01
1.011915e+01
1.014754e+01
1.017503e+01
1.020143e+01
1.022659e+01
1.025036e+01
1.027258e+01
1.029312e+01
1.031186e+01
1.032867e+01
1.034346e+01
1.035613e+01
1.036661e+01
1.037482e+01
1.038072e+01
1.038428e+01
1.038547e+01
1.038428e+01
1.038072e+01
1.037482e+01
1.036661e+01
1.035613e+01
1.034346e+01
1.032867e+01
1.031186e+01
1.029312e+01
1.027258e+01
1.025036e+01
1.022659e+01
1.020143e+01
1.017503e+01
1.014754e+01
1.011915e+01
1.009002e+01
1.006034e+01
1.003029e+01
1.000000e+01
1.000000e+01
1.003282e+01
1.006539e+01
1.009755e+01
1.012912e+01
1.015988e+01
1.018967e+01
1.021828e+01
1.024555e+01
1.027130e+01
1.029538e+01
1.031765e+01
1.033795e+01
1.035617e+01
1.037219e+01
1.038592e+01
1.039728e+01
1.040618e+01
1.041258e+01
1.041643e+01
1.041772e+01
1.041643e+01
1.041258e+01
1.040618e+01
1.039728e+01
1.038592e+01
1.037219e+01
1.035617e+01
1.033795e+01
1.031765e+01
1.029538e+01
1.027130e+01
1.024555e+01
1.021828e+01
1.018967e+01
1.015988e+01
1.012912e+01
1.009755e+01
1.006539e+01
1.003282e+01
1.000000e+01
1.000000e+01
1.003556e+01
1.007084e+01
1.010569e+01
1.013988e+01
1.017321e+01
1.020548e+01
1.023648e+01
1.026602e+01
1.029392e+01
1.032001e+01
1.034413e+01
1.036612e+01
1.038586e+01
1.040322e+01
1.041810e+01
1.043040e+01
1.044004e+01
1.044697e+01
1.045115e+01
1.045254e+01
1.045115e+01
1.044697e+01
1.044004e+01
1.043040e+01
1.041810e+01
1.040322e+01
1.038586e+01
1.036612e+01
1.034413e+01
1.032001e+01
1.029392e+01
1.026602e+01
1.023648e+01
1.020548e+01
1.017321e+01
1.013988e+01
1.010569e+01
1.007084e+01
1.003556e+01
1.000000e+01
1.000000e+01
1.003852e+01
1.007673e+01
1.011447e+01
1.015151e+01
1.018761e+01
1.022256e+01
1.025613e+01
1.028813e+01
1.031835e+01
1.034661e+01
1.037273e+01
1.039656e+01
1.041794e+01
1.043674e+01
1.045285e+01
1.046617e+01
1.047662e+01
1.048413e+01
1.048865e+01
1.049016e+01
1.048865e+01
1.048413e+01
1.047662e+01
1.046617e+01
1.045285e+01
1.043674e+01
1.041794e+01
1.039656e+01
1.037273e+01
1.034661e+01
1.031835e+01
1.028813e+01
1.025613e+01
1.022256e+01
1.018761e+01
1.015151e+01
1.011447e+01
1.007673e+01
1.003852e+01
1.000000e+01
1.000000e+01
1.004171e+01
1.008309e+01
1.012396e+01
1.016407e+01
1.020317e+01
1.024101e+01
1.027737e+01
1.031202e+01
1.034475e+01
1.037535e+01
1.040364e+01
1.042944e+01
1.045259e+01
1.047296e+01
1.049040e+01
1.050483e+01
1.051614e+01
1.052427e+01
1.052917e+01
1.053081e+01
1.052917e+01
1.052427e+01
1.051614e+01
1.050483e+01
1.049040e+01
1.047296e+01
1.045259e+01
1.042944e+01
1.040364e+01
1.037535e+01
1.034475e+01
1.031202e+01
1.027737e+01
1.024101e+01
1.020317e+01
1.016407e+01
1.012396e+01
1.008309e+01
1.004171e+01
1.000000e+01
1.000000e+01
1.004516e+01
1.008996e+01
1.013422e+01
1.017764e+01
1.021997e+01
1.026095e+01
1.030032e+01
1.033783e+01
1.037327e+01
1.040641e+01
1.043704e+01
1.046497e+01
1.049004e+01
1.051209e+01
1.053098e+01
1.054660e+01
1.055885e+01
1.056765e+01
1.057296e+01
1.057473e+01
1.057296e+01
1.056765e+01
1.055885e+01
1.054660e+01
1.053098e+01
1.051209e+01
1.049004e+01
1.046497e+01
1.043704e+01
1.040641e+01
1.037327e+01
1.033783e+01
1.030032e+01
1.026095e+01
1.021997e+01
1.017764e+01
1.013422e+01
1.008996e+01
1.004516e+01
1.000000e+01
1.000000e+01
1.004889e+01
1.009739e+01
1.014530e+01
1.019231e+01
1.023814e+01
1.028250e+01
1.032512e+01
1.036573e+01
1.040410e+01
1.043997e+01
1.047313e+01
1.050337e+01
1.053051e+01
1.055438e+01
1.057483e+01
1.059174e+01
1.060500e+01
1.061453e+01
1.062028e+01
1.062219e+01
1.062028e+01
1.061453e+01
1.060500e+01
1.059174e+01
1.057483e+01
1.055438e+01
1.053051e+01
1.050337e+01
1.047313e+01
1.043997e+01
1.040410e+01
1.036573e+01
1.032512e+01
1.028250e+01
1.023814e+01
1.019231e+01
1.014530e+01
1.009739e+01
1.004889e+01
1.000000e+01
1.000000e+01
1.005291e+01
1.010542e+01
1.015727e+01
1.020816e+01
1.025777e+01
1.030579e+01
1.035192e+01
1.039589e+01
1.043742e+01
1.047625e+01
1.051214e+01
1.054488e+01
1.057426e+01
1.060010e+01
1.062223e+01
1.064054e+01
1.065489e+01
1.066521e+01
1.067142e+01
1.067350e+01
1.067142e+01
1.066521e+01
1.065489e+01
1.064054e+01
1.062223e+01
1.060010e+01
1.057426e+01
1.054488e+01
1.051214e+01
1.047625e+01
1.043742e+01
1.039589e+01
1.035192e+01
1.030579e+01
1.025777e+01
1.020816e+01
1.015727e+01
1.010542e+01
1.005291e+01
1.000000e+01
1.000000e+01
1.005727e+01
1.011409e+01
1.017022e+01
1.022530e+01
1.027899e+01
1.033096e+01
1.038090e+01
1.042849e+01
1.047343e+01
1.051546e+01
1.055431e+01
1.058975e+01
1.062155e+01
1.064951e+01
1.067347e+01
1.069328e+01
1.070882e+01
1.071999e+01
1.072671e+01
1.072896e+01
1.072671e+01
1.071999e+01
1.070882e+01
1.069328e+01
1.067347e+01
1.064951e+01
1.062155e+01
1.058975e+01
1.055431e+01
1.051546e+01
1.047343e+01
1.042849e+01
1.038090e+01
1.033096e+01
1.027899e+01
1.022530e+01
1.017022e+01
1.011409e+01
1.005727e+01
1.000000e+01
1.000000e+01
1.006197e+01
1.012347e+01
1.018421e+01
1.024382e+01
1.030193e+01
1.035818e+01
1.041223e+01
1.046373e+01
1.051237e+01
1.055786e+01
1.059991e+01
1.063826e+01
1.067267e+01
1.070294e+01
1.072887e+01
1.075031e+01
1.076713e+01
1.077921e+01
1.078649e+01
1.078892e+01
1.078649e+01
1.077921e+01
1.076713e+01
1.075031e+01
1.072887e+01
1.070294e+01
1.067267e+01
1.063826e+01
1.059991e+01
1.055786e+01
1.051237e+01
1.046373e+01
1.041223e+01
1.035818e+01
1.030193e+01
1.024382e+01
1.018421e+01
1.012347e+01
1.006197e+01
1.000000e+01
1.000000e+01
1.006705e+01
1.013360e+01
1.019934e+01
1.026385e+01
1.032673e+01
1.038761e+01
1.044609e+01
1.050183e+01
1.055447e+01
1.060370e+01
1.064920e+01
1.069070e+01
1.072795e+01
1.076070e+01
1.078877e+01
1.081197e+01
1.083016e+01
1.084324e+01
1.085112e+01
1.085375e+01
1.085112e+01
1.084324e+01
1.083016e+01
1.081197e+01
1.078877e+01
1.076070e+01
1.072795e+01
1.069070e+01
1.064920e+01
1.060370e+01
1.055447e+01
1.050183e+01
1.044609e+01
1.038761e+01
1.032673e+01
1.026385e+01
1.019934e+01
1.013360e+01
1.006705e+01
1.000000e+01
1.000000e+01
1.007251e+01
1.014455e+01
1.021569e+01
1.028550e+01
1.035355e+01
1.041943e+01
1.048272e+01
1.054303e+01
1.060000e+01
1.065326e+01
1.070250e+01
1.074741e+01
1.078771e+01
1.082316e+01
1.085353e+01
1.087864e+01
1.089833e+01
1.091248e+01
1.092100e+01
1.092385e+01
1.092100e+01
1.091248e+01
1.089833e+01
1.087864e+01
1.085353e+01
1.082316e+01
1.078771e+01
1.074741e+01
1.070250e+01
1.065326e+01
1.060000e+01
1.054303e+01
1.048272e+01
1.041943e+01
1.035355e+01
1.028550e+01
1.021569e+01
1.014455e+01
1.007251e+01
1.000000e+01
1.000000e+01
1.007846e+01
1.015643e+01
1.023345e+01
1.030902e+01
1.038268e+01
1.045399e+01
1.052250e+01
1.058779e+01
1.064945e+01
1.070711e+01
1.076041e+01
1.080902e+01
1.085264e+01
1.089101e+01
1.092388e+01
1.095106e+01
1.097237e+01
1.098769e+01
1.099692e+01
1.100000e+01
1.099692e+01
1.098769e+01
1.097237e+01
1.095106e+01
1.092388e+01
1.089101e+01
1.085264e+01
1.080902e+01
1.076041e+01
1.070711e+01
1.064945e+01
1.058779e+01
1.052250e+01
1.045399e+01
1.038268e+01
1.030902e+01
1.023345e+01
1.015643e+01
1.007846e+01
1.000000e+01
