# vtk DataFile Version 3.0
9 points difference shceme(4-order bound)
ASCII
DATASET STRUCTURED_POINTS
DIMENSIONS 21 21 1
ORIGIN 0.0 0.0 0.0
SPACING 0.05 0.05 1.0
POINT_DATA 441
SCALARS Temperature double 1
LOOKUP_TABLE default
1.000000e+01
1.000000e+01
1.000000e+01
1.000000e+01
1.000000e+01
1.000000e+01
1.000000e+01
1.000000e+01
1.000000e+01
1.000000e+01
1.000000e+01
1.000000e+01
1.000000e+01
1.000000e+01
1.000000e+01
1.000000e+01
1.000000e+01
1.000000e+01
1.000000e+01
1.000000e+01
1.000000e+01
1.000000e+01
1.000214e+01
1.000421e+01
1.000618e+01
1.000799e+01
1.000961e+01
1.001099e+01
1.001210e+01
1.001292e+01
1.001342e+01
1.001358e+01
1.001342e+01
1.001292e+01
1.001210e+01
1.001099e+01
1.000961e+01
1.000799e+01
1.000618e+01
1.000421e+01
1.000214e+01
1.000000e+01
1.000000e+01
1.000434e+01
1.000855e+01
1.001254e+01
1.001623e+01
1.001952e+01
1.002233e+01
1.002459e+01
1.002624e+01
1.002725e+01
1.002759e+01
1.002725e+01
1.002624e+01
1.002459e+01
1.002233e+01
1.001952e+01
1.001623e+01
1.001254e+01
1.000855e+01
1.000434e+01
1.000000e+01
1.000000e+01
1.000665e+01
1.001310e+01
1.001922e+01
1.002487e+01
1.002991e+01
1.003422e+01
1.003768e+01
1.004021e+01
1.004176e+01
1.004228e+01
1.004176e+01
1.004021e+01
1.003768e+01
1.003422e+01
1.002991e+01
1.002487e+01
1.001922e+01
1.001310e+01
1.000665e+01
1.000000e+01
1.000000e+01
1.000913e+01
1.001797e+01
1.002637e+01
1.003413e+01
1.004104e+01
1.004695e+01
1.005170e+01
1.005518e+01
1.005730e+01
1.005801e+01
1.005730e+01
1.005518e+01
1.005170e+01
1.004695e+01
1.004104e+01
1.003413e+01
1.002637e+01
1.001797e+01
1.000913e+01
1.000000e+01
1.000000e+01
1.001183e+01
1.002329e+01
1.003418e+01
1.004423e+01
1.005319e+01
1.006084e+01
1.006700e+01
1.007150e+01
1.007426e+01
1.007518e+01
1.007426e+01
1.007150e+01
1.006700e+01
1.006084e+01
1.005319e+01
1.004423e+01
1.003418e+01
1.002329e+01
1.001183e+01
1.000000e+01
1.000000e+01
1.001482e+01
1.002918e+01
1.004283e+01
1.005542e+01
1.006664e+01
1.007623e+01
1.008395e+01
1.008960e+01
1.009304e+01
1.009420e+01
1.009304e+01
1.008960e+01
1.008395e+01
1.007623e+01
1.006664e+01
1.005542e+01
1.004283e+01
1.002918e+01
1.001482e+01
1.000000e+01
1.000000e+01
1.001818e+01
1.003580e+01
1.005253e+01
1.006798e+01
1.008175e+01
1.009351e+01
1.010297e+01
1.010990e+01
1.011413e+01
1.011555e+01
1.011413e+01
1.010990e+01
1.010297e+01
1.009351e+01
1.008175e+01
1.006798e+01
1.005253e+01
1.003580e+01
1.001818e+01
1.000000e+01
1.000000e+01
1.002199e+01
1.004329e+01
1.006353e+01
1.008221e+01
1.009887e+01
1.011309e+01
1.012454e+01
1.013292e+01
1.013803e+01
1.013975e+01
1.013803e+01
1.013292e+01
1.012454e+01
1.011309e+01
1.009887e+01
1.008221e+01
1.006353e+01
1.004329e+01
1.002199e+01
1.000000e+01
1.000000e+01
1.002634e+01
1.005186e+01
1.007610e+01
1.009848e+01
1.011843e+01
1.013547e+01
1.014918e+01
1.015922e+01
1.016535e+01
1.016741e+01
1.016535e+01
1.015922e+01
1.014918e+01
1.013547e+01
1.011843e+01
1.009848e+01
1.007610e+01
1.005186e+01
1.002634e+01
1.000000e+01
1.000000e+01
1.003134e+01
1.006171e+01
1.009055e+01
1.011718e+01
1.014092e+01
1.016119e+01
1.017751e+01
1.018945e+01
1.019674e+01
1.019919e+01
1.019674e+01
1.018945e+01
1.017751e+01
1.016119e+01
1.014092e+01
1.011718e+01
1.009055e+01
1.006171e+01
1.003134e+01
1.000000e+01
1.000000e+01
1.003712e+01
1.007307e+01
1.010724e+01
1.013876e+01
1.016688e+01
1.019090e+01
1.021022e+01
1.022437e+01
1.023300e+01
1.023590e+01
1.023300e+01
1.022437e+01
1.021022e+01
1.019090e+01
1.016688e+01
1.013876e+01
1.010724e+01
1.007307e+01
1.003712e+01
1.000000e+01
1.000000e+01
1.004380e+01
1.008624e+01
1.012657e+01
1.016378e+01
1.019697e+01
1.022531e+01
1.024812e+01
1.026482e+01
1.027501e+01
1.027843e+01
1.027501e+01
1.026482e+01
1.024812e+01
1.022531e+01
1.019697e+01
1.016378e+01
1.012657e+01
1.008624e+01
1.004380e+01
1.000000e+01
1.000000e+01
1.005157e+01
1.010154e+01
1.014902e+01
1.019284e+01
1.023191e+01
1.026529e+01
1.029214e+01
1.031181e+01
1.032381e+01
1.032784e+01
1.032381e+01
1.031181e+01
1.029214e+01
1.026529e+01
1.023191e+01
1.019284e+01
1.014902e+01
1.010154e+01
1.005157e+01
1.000000e+01
1.000000e+01
1.006061e+01
1.011934e+01
1.017515e+01
1.022665e+01
1.027258e+01
1.031182e+01
1.034339e+01
1.036651e+01
1.038061e+01
1.038535e+01
1.038061e+01
1.036651e+01
1.034339e+01
1.031182e+01
1.027258e+01
1.022665e+01
1.017515e+01
1.011934e+01
1.006061e+01
1.000000e+01
1.000000e+01
1.007114e+01
1.014008e+01
1.020559e+01
1.026605e+01
1.031998e+01
1.036605e+01
1.040311e+01
1.043025e+01
1.044681e+01
1.045238e+01
1.044681e+01
1.043025e+01
1.040311e+01
1.036605e+01
1.031998e+01
1.026605e+01
1.020559e+01
1.014008e+01
1.007114e+01
1.000000e+01
1.000000e+01
1.008342e+01
1.016427e+01
1.024110e+01
1.031202e+01
1.037528e+01
1.042931e+01
1.047279e+01
1.050463e+01
1.052406e+01
1.053059e+01
1.052406e+01
1.050463e+01
1.047279e+01
1.042931e+01
1.037528e+01
1.031202e+01
1.024110e+01
1.016427e+01
1.008342e+01
1.000000e+01
1.000000e+01
1.009773e+01
1.019248e+01
1.028254e+01
1.036568e+01
1.043984e+01
1.050318e+01
1.055415e+01
1.059148e+01
1.061425e+01
1.062191e+01
1.061425e+01
1.059148e+01
1.055415e+01
1.050318e+01
1.043984e+01
1.036568e+01
1.028254e+01
1.019248e+01
1.009773e+01
1.000000e+01
1.000000e+01
1.011439e+01
1.022540e+01
1.033093e+01
1.042836e+01
1.051526e+01
1.058948e+01
1.064920e+01
1.069294e+01
1.071963e+01
1.072859e+01
1.071963e+01
1.069294e+01
1.064920e+01
1.058948e+01
1.051526e+01
1.042836e+01
1.033093e+01
1.022540e+01
1.011439e+01
1.000000e+01
1.000000e+01
1.013366e+01
1.026382e+01
1.038748e+01
1.050161e+01
1.060340e+01
1.069035e+01
1.076030e+01
1.081153e+01
1.084279e+01
1.085329e+01
1.084279e+01
1.081153e+01
1.076030e+01
1.069035e+01
1.060340e+01
1.050161e+01
1.038748e+01
1.026382e+01
1.013366e+01
1.000000e+01
1.000000e+01
1.015643e+01
1.030902e+01
1.045399e+01
1.058779e+01
1.070711e+01
1.080902e+01
1.089101e+01
1.095106e+01
1.098769e+01
1.100000e+01
1.098769e+01
1.095106e+01
1.089101e+01
1.080902e+01
1.070711e+01
1.058779e+01
1.045399e+01
1.030902e+01
1.015643e+01
1.000000e+01
