# vtk DataFile Version 3.0
9 points difference shceme(4-order bound)
ASCII
DATASET STRUCTURED_POINTS
DIMENSIONS 81 81 1
ORIGIN 0.0 0.0 0.0
SPACING 0.0125 0.0125 1.0
POINT_DATA 6561
SCALARS Temperature double 1
LOOKUP_TABLE default
1.000000e+01
1.000000e+01
1.000000e+01
1.000000e+01
1.000000e+01
1.000000e+01
1.000000e+01
1.000000e+01
1.000000e+01
1.000000e+01
1.000000e+01
1.000000e+01
1.000000e+01
1.000000e+01
1.000000e+01
1.000000e+01
1.000000e+01
1.000000e+01
1.000000e+01
1.000000e+01
1.000000e+01
1.000000e+01
1.000000e+01
1.000000e+01
1.000000e+01
1.000000e+01
1.000000e+01
1.000000e+01
1.000000e+01
1.000000e+01
1.000000e+01
1.000000e+01
1.000000e+01
1.000000e+01
1.000000e+01
1.000000e+01
1.000000e+01
1.000000e+01
1.000000e+01
1.000000e+01
1.000000e+01
1.000000e+01
1.000000e+01
1.000000e+01
1.000000e+01
1.000000e+01
1.000000e+01
1.000000e+01
1.000000e+01
1.000000e+01
1.000000e+01
1.000000e+01
1.000000e+01
1.000000e+01
1.000000e+01
1.000000e+01
1.000000e+01
1.000000e+01
1.000000e+01
1.000000e+01
1.000000e+01
1.000000e+01
1.000000e+01
1.000000e+01
1.000000e+01
1.000000e+01
1.000000e+01
1.000000e+01
1.000000e+01
1.000000e+01
1.000000e+01
1.000000e+01
1.000000e+01
1.000000e+01
1.000000e+01
1.000000e+01
1.000000e+01
1.000000e+01
1.000000e+01
1.000000e+01
1.000000e+01
1.000000e+01
1.000013e+01
1.000027e+01
1.000040e+01
1.000053e+01
1.000066e+01
1.000079e+01
1.000092e+01
1.000105e+01
1.000118e+01
1.000130e+01
1.000142e+01
1.000154e+01
1.000166e+01
1.000178e+01
1.000189e+01
1.000200e+01
1.000210e+01
1.000221e+01
1.000231e+01
1.000240e+01
1.000250e+01
1.000259e+01
1.000267e+01
1.000275e+01
1.000283e+01
1.000290e+01
1.000297e+01
1.000303e+01
1.000309e+01
1.000314e+01
1.000319e+01
1.000323e+01
1.000327e+01
1.000331e+01
1.000333e+01
1.000336e+01
1.000338e+01
1.000339e+01
1.000340e+01
1.000340e+01
1.000340e+01
1.000339e+01
1.000338e+01
1.000336e+01
1.000333e+01
1.000331e+01
1.000327e+01
1.000323e+01
1.000319e+01
1.000314e+01
1.000309e+01
1.000303e+01
1.000297e+01
1.000290e+01
1.000283e+01
1.000275e+01
1.000267e+01
1.000259e+01
1.000250e+01
1.000240e+01
1.000231e+01
1.000221e+01
1.000210e+01
1.000200e+01
1.000189e+01
1.000178e+01
1.000166e+01
1.000154e+01
1.000142e+01
1.000130e+01
1.000118e+01
1.000105e+01
1.000092e+01
1.000079e+01
1.000066e+01
1.000053e+01
1.000040e+01
1.000027e+01
1.000013e+01
1.000000e+01
1.000000e+01
1.000027e+01
1.000053e+01
1.000080e+01
1.000106e+01
1.000133e+01
1.000159e+01
1.000185e+01
1.000210e+01
1.000236e+01
1.000260e+01
1.000285e+01
1.000309e+01
1.000333e+01
1.000356e+01
1.000378e+01
1.000400e+01
1.000421e+01
1.000442e+01
1.000462e+01
1.000481e+01
1.000500e+01
1.000518e+01
1.000534e+01
1.000551e+01
1.000566e+01
1.000580e+01
1.000594e+01
1.000606e+01
1.000618e+01
1.000629e+01
1.000639e+01
1.000647e+01
1.000655e+01
1.000662e+01
1.000668e+01
1.000672e+01
1.000676e+01
1.000678e+01
1.000680e+01
1.000681e+01
1.000680e+01
1.000678e+01
1.000676e+01
1.000672e+01
1.000668e+01
1.000662e+01
1.000655e+01
1.000647e+01
1.000639e+01
1.000629e+01
1.000618e+01
1.000606e+01
1.000594e+01
1.000580e+01
1.000566e+01
1.000551e+01
1.000534e+01
1.000518e+01
1.000500e+01
1.000481e+01
1.000462e+01
1.000442e+01
1.000421e+01
1.000400e+01
1.000378e+01
1.000356e+01
1.000333e+01
1.000309e+01
1.000285e+01
1.000260e+01
1.000236e+01
1.000210e+01
1.000185e+01
1.000159e+01
1.000133e+01
1.000106e+01
1.000080e+01
1.000053e+01
1.000027e+01
1.000000e+01
1.000000e+01
1.000040e+01
1.000080e+01
1.000120e+01
1.000160e+01
1.000199e+01
1.000239e+01
1.000277e+01
1.000316e+01
1.000354e+01
1.000391e+01
1.000428e+01
1.000464e+01
1.000500e+01
1.000534e+01
1.000568e+01
1.000601e+01
1.000633e+01
1.000664e+01
1.000694e+01
1.000723e+01
1.000751e+01
1.000777e+01
1.000803e+01
1.000827e+01
1.000850e+01
1.000872e+01
1.000892e+01
1.000911e+01
1.000928e+01
1.000944e+01
1.000959e+01
1.000972e+01
1.000984e+01
1.000994e+01
1.001003e+01
1.001010e+01
1.001015e+01
1.001019e+01
1.001021e+01
1.001022e+01
1.001021e+01
1.001019e+01
1.001015e+01
1.001010e+01
1.001003e+01
1.000994e+01
1.000984e+01
1.000972e+01
1.000959e+01
1.000944e+01
1.000928e+01
1.000911e+01
1.000892e+01
1.000872e+01
1.000850e+01
1.000827e+01
1.000803e+01
1.000777e+01
1.000751e+01
1.000723e+01
1.000694e+01
1.000664e+01
1.000633e+01
1.000601e+01
1.000568e+01
1.000534e+01
1.000500e+01
1.000464e+01
1.000428e+01
1.000391e+01
1.000354e+01
1.000316e+01
1.000277e+01
1.000239e+01
1.000199e+01
1.000160e+01
1.000120e+01
1.000080e+01
1.000040e+01
1.000000e+01
1.000000e+01
1.000054e+01
1.000107e+01
1.000161e+01
1.000214e+01
1.000266e+01
1.000319e+01
1.000371e+01
1.000422e+01
1.000473e+01
1.000523e+01
1.000572e+01
1.000620e+01
1.000667e+01
1.000713e+01
1.000759e+01
1.000803e+01
1.000845e+01
1.000887e+01
1.000927e+01
1.000966e+01
1.001003e+01
1.001038e+01
1.001072e+01
1.001105e+01
1.001135e+01
1.001164e+01
1.001191e+01
1.001217e+01
1.001240e+01
1.001262e+01
1.001281e+01
1.001299e+01
1.001314e+01
1.001328e+01
1.001339e+01
1.001349e+01
1.001356e+01
1.001361e+01
1.001364e+01
1.001366e+01
1.001364e+01
1.001361e+01
1.001356e+01
1.001349e+01
1.001339e+01
1.001328e+01
1.001314e+01
1.001299e+01
1.001281e+01
1.001262e+01
1.001240e+01
1.001217e+01
1.001191e+01
1.001164e+01
1.001135e+01
1.001105e+01
1.001072e+01
1.001038e+01
1.001003e+01
1.000966e+01
1.000927e+01
1.000887e+01
1.000845e+01
1.000803e+01
1.000759e+01
1.000713e+01
1.000667e+01
1.000620e+01
1.000572e+01
1.000523e+01
1.000473e+01
1.000422e+01
1.000371e+01
1.000319e+01
1.000266e+01
1.000214e+01
1.000161e+01
1.000107e+01
1.000054e+01
1.000000e+01
1.000000e+01
1.000067e+01
1.000134e+01
1.000201e+01
1.000268e+01
1.000334e+01
1.000399e+01
1.000464e+01
1.000529e+01
1.000592e+01
1.000655e+01
1.000716e+01
1.000777e+01
1.000836e+01
1.000894e+01
1.000951e+01
1.001006e+01
1.001059e+01
1.001111e+01
1.001161e+01
1.001210e+01
1.001256e+01
1.001301e+01
1.001344e+01
1.001384e+01
1.001423e+01
1.001459e+01
1.001493e+01
1.001524e+01
1.001554e+01
1.001581e+01
1.001605e+01
1.001627e+01
1.001647e+01
1.001664e+01
1.001678e+01
1.001690e+01
1.001699e+01
1.001706e+01
1.001710e+01
1.001711e+01
1.001710e+01
1.001706e+01
1.001699e+01
1.001690e+01
1.001678e+01
1.001664e+01
1.001647e+01
1.001627e+01
1.001605e+01
1.001581e+01
1.001554e+01
1.001524e+01
1.001493e+01
1.001459e+01
1.001423e+01
1.001384e+01
1.001344e+01
1.001301e+01
1.001256e+01
1.001210e+01
1.001161e+01
1.001111e+01
1.001059e+01
1.001006e+01
1.000951e+01
1.000894e+01
1.000836e+01
1.000777e+01
1.000716e+01
1.000655e+01
1.000592e+01
1.000529e+01
1.000464e+01
1.000399e+01
1.000334e+01
1.000268e+01
1.000201e+01
1.000134e+01
1.000067e+01
1.000000e+01
1.000000e+01
1.000081e+01
1.000162e+01
1.000242e+01
1.000322e+01
1.000402e+01
1.000481e+01
1.000559e+01
1.000636e+01
1.000713e+01
1.000788e+01
1.000862e+01
1.000935e+01
1.001006e+01
1.001076e+01
1.001144e+01
1.001210e+01
1.001275e+01
1.001337e+01
1.001398e+01
1.001456e+01
1.001512e+01
1.001566e+01
1.001617e+01
1.001666e+01
1.001712e+01
1.001755e+01
1.001796e+01
1.001834e+01
1.001870e+01
1.001902e+01
1.001932e+01
1.001958e+01
1.001982e+01
1.002002e+01
1.002019e+01
1.002034e+01
1.002045e+01
1.002053e+01
1.002057e+01
1.002059e+01
1.002057e+01
1.002053e+01
1.002045e+01
1.002034e+01
1.002019e+01
1.002002e+01
1.001982e+01
1.001958e+01
1.001932e+01
1.001902e+01
1.001870e+01
1.001834e+01
1.001796e+01
1.001755e+01
1.001712e+01
1.001666e+01
1.001617e+01
1.001566e+01
1.001512e+01
1.001456e+01
1.001398e+01
1.001337e+01
1.001275e+01
1.001210e+01
1.001144e+01
1.001076e+01
1.001006e+01
1.000935e+01
1.000862e+01
1.000788e+01
1.000713e+01
1.000636e+01
1.000559e+01
1.000481e+01
1.000402e+01
1.000322e+01
1.000242e+01
1.000162e+01
1.000081e+01
1.000000e+01
1.000000e+01
1.000095e+01
1.000189e+01
1.000283e+01
1.000377e+01
1.000470e+01
1.000563e+01
1.000654e+01
1.000745e+01
1.000834e+01
1.000922e+01
1.001009e+01
1.001094e+01
1.001178e+01
1.001259e+01
1.001339e+01
1.001417e+01
1.001492e+01
1.001565e+01
1.001636e+01
1.001704e+01
1.001770e+01
1.001833e+01
1.001893e+01
1.001950e+01
1.002004e+01
1.002055e+01
1.002103e+01
1.002147e+01
1.002189e+01
1.002227e+01
1.002261e+01
1.002292e+01
1.002320e+01
1.002343e+01
1.002364e+01
1.002380e+01
1.002393e+01
1.002403e+01
1.002408e+01
1.002410e+01
1.002408e+01
1.002403e+01
1.002393e+01
1.002380e+01
1.002364e+01
1.002343e+01
1.002320e+01
1.002292e+01
1.002261e+01
1.002227e+01
1.002189e+01
1.002147e+01
1.002103e+01
1.002055e+01
1.002004e+01
1.001950e+01
1.001893e+01
1.001833e+01
1.001770e+01
1.001704e+01
1.001636e+01
1.001565e+01
1.001492e+01
1.001417e+01
1.001339e+01
1.001259e+01
1.001178e+01
1.001094e+01
1.001009e+01
1.000922e+01
1.000834e+01
1.000745e+01
1.000654e+01
1.000563e+01
1.000470e+01
1.000377e+01
1.000283e+01
1.000189e+01
1.000095e+01
1.000000e+01
1.000000e+01
1.000109e+01
1.000217e+01
1.000325e+01
1.000433e+01
1.000539e+01
1.000645e+01
1.000751e+01
1.000854e+01
1.000957e+01
1.001058e+01
1.001158e+01
1.001255e+01
1.001351e+01
1.001445e+01
1.001536e+01
1.001625e+01
1.001712e+01
1.001796e+01
1.001877e+01
1.001955e+01
1.002030e+01
1.002102e+01
1.002171e+01
1.002237e+01
1.002299e+01
1.002357e+01
1.002412e+01
1.002464e+01
1.002511e+01
1.002554e+01
1.002594e+01
1.002630e+01
1.002661e+01
1.002689e+01
1.002712e+01
1.002731e+01
1.002746e+01
1.002756e+01
1.002763e+01
1.002765e+01
1.002763e+01
1.002756e+01
1.002746e+01
1.002731e+01
1.002712e+01
1.002689e+01
1.002661e+01
1.002630e+01
1.002594e+01
1.002554e+01
1.002511e+01
1.002464e+01
1.002412e+01
1.002357e+01
1.002299e+01
1.002237e+01
1.002171e+01
1.002102e+01
1.002030e+01
1.001955e+01
1.001877e+01
1.001796e+01
1.001712e+01
1.001625e+01
1.001536e+01
1.001445e+01
1.001351e+01
1.001255e+01
1.001158e+01
1.001058e+01
1.000957e+01
1.000854e+01
1.000751e+01
1.000645e+01
1.000539e+01
1.000433e+01
1.000325e+01
1.000217e+01
1.000109e+01
1.000000e+01
1.000000e+01
1.000123e+01
1.000245e+01
1.000367e+01
1.000489e+01
1.000610e+01
1.000729e+01
1.000848e+01
1.000965e+01
1.001081e+01
1.001196e+01
1.001308e+01
1.001418e+01
1.001527e+01
1.001632e+01
1.001736e+01
1.001836e+01
1.001934e+01
1.002029e+01
1.002121e+01
1.002209e+01
1.002294e+01
1.002376e+01
1.002453e+01
1.002527e+01
1.002598e+01
1.002664e+01
1.002726e+01
1.002784e+01
1.002837e+01
1.002886e+01
1.002931e+01
1.002971e+01
1.003007e+01
1.003038e+01
1.003064e+01
1.003086e+01
1.003102e+01
1.003114e+01
1.003122e+01
1.003124e+01
1.003122e+01
1.003114e+01
1.003102e+01
1.003086e+01
1.003064e+01
1.003038e+01
1.003007e+01
1.002971e+01
1.002931e+01
1.002886e+01
1.002837e+01
1.002784e+01
1.002726e+01
1.002664e+01
1.002598e+01
1.002527e+01
1.002453e+01
1.002376e+01
1.002294e+01
1.002209e+01
1.002121e+01
1.002029e+01
1.001934e+01
1.001836e+01
1.001736e+01
1.001632e+01
1.001527e+01
1.001418e+01
1.001308e+01
1.001196e+01
1.001081e+01
1.000965e+01
1.000848e+01
1.000729e+01
1.000610e+01
1.000489e+01
1.000367e+01
1.000245e+01
1.000123e+01
1.000000e+01
1.000000e+01
1.000137e+01
1.000274e+01
1.000410e+01
1.000546e+01
1.000681e+01
1.000814e+01
1.000947e+01
1.001078e+01
1.001207e+01
1.001335e+01
1.001460e+01
1.001584e+01
1.001704e+01
1.001823e+01
1.001938e+01
1.002050e+01
1.002159e+01
1.002265e+01
1.002368e+01
1.002466e+01
1.002561e+01
1.002652e+01
1.002739e+01
1.002822e+01
1.002900e+01
1.002974e+01
1.003043e+01
1.003108e+01
1.003168e+01
1.003223e+01
1.003272e+01
1.003317e+01
1.003357e+01
1.003392e+01
1.003421e+01
1.003445e+01
1.003464e+01
1.003477e+01
1.003485e+01
1.003488e+01
1.003485e+01
1.003477e+01
1.003464e+01
1.003445e+01
1.003421e+01
1.003392e+01
1.003357e+01
1.003317e+01
1.003272e+01
1.003223e+01
1.003168e+01
1.003108e+01
1.003043e+01
1.002974e+01
1.002900e+01
1.002822e+01
1.002739e+01
1.002652e+01
1.002561e+01
1.002466e+01
1.002368e+01
1.002265e+01
1.002159e+01
1.002050e+01
1.001938e+01
1.001823e+01
1.001704e+01
1.001584e+01
1.001460e+01
1.001335e+01
1.001207e+01
1.001078e+01
1.000947e+01
1.000814e+01
1.000681e+01
1.000546e+01
1.000410e+01
1.000274e+01
1.000137e+01
1.000000e+01
1.000000e+01
1.000152e+01
1.000303e+01
1.000453e+01
1.000603e+01
1.000753e+01
1.000901e+01
1.001047e+01
1.001192e+01
1.001335e+01
1.001476e+01
1.001615e+01
1.001751e+01
1.001885e+01
1.002016e+01
1.002143e+01
1.002267e+01
1.002388e+01
1.002505e+01
1.002618e+01
1.002728e+01
1.002833e+01
1.002933e+01
1.003029e+01
1.003121e+01
1.003207e+01
1.003289e+01
1.003366e+01
1.003437e+01
1.003503e+01
1.003564e+01
1.003619e+01
1.003669e+01
1.003713e+01
1.003751e+01
1.003783e+01
1.003810e+01
1.003831e+01
1.003845e+01
1.003854e+01
1.003857e+01
1.003854e+01
1.003845e+01
1.003831e+01
1.003810e+01
1.003783e+01
1.003751e+01
1.003713e+01
1.003669e+01
1.003619e+01
1.003564e+01
1.003503e+01
1.003437e+01
1.003366e+01
1.003289e+01
1.003207e+01
1.003121e+01
1.003029e+01
1.002933e+01
1.002833e+01
1.002728e+01
1.002618e+01
1.002505e+01
1.002388e+01
1.002267e+01
1.002143e+01
1.002016e+01
1.001885e+01
1.001751e+01
1.001615e+01
1.001476e+01
1.001335e+01
1.001192e+01
1.001047e+01
1.000901e+01
1.000753e+01
1.000603e+01
1.000453e+01
1.000303e+01
1.000152e+01
1.000000e+01
1.000000e+01
1.000166e+01
1.000332e+01
1.000498e+01
1.000662e+01
1.000826e+01
1.000988e+01
1.001149e+01
1.001308e+01
1.001465e+01
1.001620e+01
1.001772e+01
1.001922e+01
1.002068e+01
1.002212e+01
1.002352e+01
1.002488e+01
1.002620e+01
1.002749e+01
1.002873e+01
1.002993e+01
1.003108e+01
1.003219e+01
1.003324e+01
1.003424e+01
1.003519e+01
1.003609e+01
1.003693e+01
1.003771e+01
1.003844e+01
1.003911e+01
1.003971e+01
1.004026e+01
1.004074e+01
1.004116e+01
1.004151e+01
1.004181e+01
1.004203e+01
1.004220e+01
1.004229e+01
1.004233e+01
1.004229e+01
1.004220e+01
1.004203e+01
1.004181e+01
1.004151e+01
1.004116e+01
1.004074e+01
1.004026e+01
1.003971e+01
1.003911e+01
1.003844e+01
1.003771e+01
1.003693e+01
1.003609e+01
1.003519e+01
1.003424e+01
1.003324e+01
1.003219e+01
1.003108e+01
1.002993e+01
1.002873e+01
1.002749e+01
1.002620e+01
1.002488e+01
1.002352e+01
1.002212e+01
1.002068e+01
1.001922e+01
1.001772e+01
1.001620e+01
1.001465e+01
1.001308e+01
1.001149e+01
1.000988e+01
1.000826e+01
1.000662e+01
1.000498e+01
1.000332e+01
1.000166e+01
1.000000e+01
1.000000e+01
1.000181e+01
1.000362e+01
1.000542e+01
1.000722e+01
1.000900e+01
1.001077e+01
1.001253e+01
1.001426e+01
1.001597e+01
1.001766e+01
1.001932e+01
1.002095e+01
1.002255e+01
1.002411e+01
1.002564e+01
1.002712e+01
1.002857e+01
1.002997e+01
1.003132e+01
1.003263e+01
1.003389e+01
1.003509e+01
1.003624e+01
1.003733e+01
1.003837e+01
1.003935e+01
1.004026e+01
1.004112e+01
1.004191e+01
1.004263e+01
1.004329e+01
1.004389e+01
1.004441e+01
1.004487e+01
1.004526e+01
1.004558e+01
1.004583e+01
1.004600e+01
1.004611e+01
1.004615e+01
1.004611e+01
1.004600e+01
1.004583e+01
1.004558e+01
1.004526e+01
1.004487e+01
1.004441e+01
1.004389e+01
1.004329e+01
1.004263e+01
1.004191e+01
1.004112e+01
1.004026e+01
1.003935e+01
1.003837e+01
1.003733e+01
1.003624e+01
1.003509e+01
1.003389e+01
1.003263e+01
1.003132e+01
1.002997e+01
1.002857e+01
1.002712e+01
1.002564e+01
1.002411e+01
1.002255e+01
1.002095e+01
1.001932e+01
1.001766e+01
1.001597e+01
1.001426e+01
1.001253e+01
1.001077e+01
1.000900e+01
1.000722e+01
1.000542e+01
1.000362e+01
1.000181e+01
1.000000e+01
1.000000e+01
1.000197e+01
1.000393e+01
1.000588e+01
1.000783e+01
1.000976e+01
1.001168e+01
1.001358e+01
1.001546e+01
1.001732e+01
1.001915e+01
1.002095e+01
1.002272e+01
1.002445e+01
1.002614e+01
1.002780e+01
1.002941e+01
1.003098e+01
1.003250e+01
1.003396e+01
1.003538e+01
1.003674e+01
1.003805e+01
1.003929e+01
1.004048e+01
1.004160e+01
1.004266e+01
1.004366e+01
1.004458e+01
1.004544e+01
1.004623e+01
1.004694e+01
1.004759e+01
1.004816e+01
1.004865e+01
1.004907e+01
1.004942e+01
1.004969e+01
1.004988e+01
1.005000e+01
1.005003e+01
1.005000e+01
1.004988e+01
1.004969e+01
1.004942e+01
1.004907e+01
1.004865e+01
1.004816e+01
1.004759e+01
1.004694e+01
1.004623e+01
1.004544e+01
1.004458e+01
1.004366e+01
1.004266e+01
1.004160e+01
1.004048e+01
1.003929e+01
1.003805e+01
1.003674e+01
1.003538e+01
1.003396e+01
1.003250e+01
1.003098e+01
1.002941e+01
1.002780e+01
1.002614e+01
1.002445e+01
1.002272e+01
1.002095e+01
1.001915e+01
1.001732e+01
1.001546e+01
1.001358e+01
1.001168e+01
1.000976e+01
1.000783e+01
1.000588e+01
1.000393e+01
1.000197e+01
1.000000e+01
1.000000e+01
1.000212e+01
1.000424e+01
1.000635e+01
1.000845e+01
1.001054e+01
1.001261e+01
1.001466e+01
1.001669e+01
1.001869e+01
1.002067e+01
1.002261e+01
1.002452e+01
1.002639e+01
1.002822e+01
1.003000e+01
1.003174e+01
1.003343e+01
1.003507e+01
1.003666e+01
1.003818e+01
1.003965e+01
1.004106e+01
1.004241e+01
1.004369e+01
1.004490e+01
1.004604e+01
1.004712e+01
1.004812e+01
1.004904e+01
1.004989e+01
1.005066e+01
1.005136e+01
1.005197e+01
1.005251e+01
1.005296e+01
1.005334e+01
1.005363e+01
1.005383e+01
1.005396e+01
1.005400e+01
1.005396e+01
1.005383e+01
1.005363e+01
1.005334e+01
1.005296e+01
1.005251e+01
1.005197e+01
1.005136e+01
1.005066e+01
1.004989e+01
1.004904e+01
1.004812e+01
1.004712e+01
1.004604e+01
1.004490e+01
1.004369e+01
1.004241e+01
1.004106e+01
1.003965e+01
1.003818e+01
1.003666e+01
1.003507e+01
1.003343e+01
1.003174e+01
1.003000e+01
1.002822e+01
1.002639e+01
1.002452e+01
1.002261e+01
1.002067e+01
1.001869e+01
1.001669e+01
1.001466e+01
1.001261e+01
1.001054e+01
1.000845e+01
1.000635e+01
1.000424e+01
1.000212e+01
1.000000e+01
1.000000e+01
1.000228e+01
1.000456e+01
1.000682e+01
1.000908e+01
1.001133e+01
1.001355e+01
1.001576e+01
1.001794e+01
1.002009e+01
1.002222e+01
1.002430e+01
1.002636e+01
1.002837e+01
1.003033e+01
1.003225e+01
1.003412e+01
1.003594e+01
1.003770e+01
1.003941e+01
1.004105e+01
1.004263e+01
1.004414e+01
1.004559e+01
1.004696e+01
1.004827e+01
1.004950e+01
1.005065e+01
1.005172e+01
1.005272e+01
1.005363e+01
1.005446e+01
1.005521e+01
1.005587e+01
1.005645e+01
1.005694e+01
1.005734e+01
1.005765e+01
1.005787e+01
1.005801e+01
1.005805e+01
1.005801e+01
1.005787e+01
1.005765e+01
1.005734e+01
1.005694e+01
1.005645e+01
1.005587e+01
1.005521e+01
1.005446e+01
1.005363e+01
1.005272e+01
1.005172e+01
1.005065e+01
1.004950e+01
1.004827e+01
1.004696e+01
1.004559e+01
1.004414e+01
1.004263e+01
1.004105e+01
1.003941e+01
1.003770e+01
1.003594e+01
1.003412e+01
1.003225e+01
1.003033e+01
1.002837e+01
1.002636e+01
1.002430e+01
1.002222e+01
1.002009e+01
1.001794e+01
1.001576e+01
1.001355e+01
1.001133e+01
1.000908e+01
1.000682e+01
1.000456e+01
1.000228e+01
1.000000e+01
1.000000e+01
1.000244e+01
1.000488e+01
1.000731e+01
1.000973e+01
1.001213e+01
1.001452e+01
1.001688e+01
1.001922e+01
1.002153e+01
1.002380e+01
1.002604e+01
1.002823e+01
1.003039e+01
1.003250e+01
1.003455e+01
1.003656e+01
1.003850e+01
1.004039e+01
1.004222e+01
1.004398e+01
1.004567e+01
1.004729e+01
1.004884e+01
1.005031e+01
1.005171e+01
1.005303e+01
1.005426e+01
1.005541e+01
1.005648e+01
1.005746e+01
1.005835e+01
1.005915e+01
1.005986e+01
1.006047e+01
1.006100e+01
1.006142e+01
1.006176e+01
1.006200e+01
1.006214e+01
1.006219e+01
1.006214e+01
1.006200e+01
1.006176e+01
1.006142e+01
1.006100e+01
1.006047e+01
1.005986e+01
1.005915e+01
1.005835e+01
1.005746e+01
1.005648e+01
1.005541e+01
1.005426e+01
1.005303e+01
1.005171e+01
1.005031e+01
1.004884e+01
1.004729e+01
1.004567e+01
1.004398e+01
1.004222e+01
1.004039e+01
1.003850e+01
1.003656e+01
1.003455e+01
1.003250e+01
1.003039e+01
1.002823e+01
1.002604e+01
1.002380e+01
1.002153e+01
1.001922e+01
1.001688e+01
1.001452e+01
1.001213e+01
1.000973e+01
1.000731e+01
1.000488e+01
1.000244e+01
1.000000e+01
1.000000e+01
1.000261e+01
1.000521e+01
1.000781e+01
1.001039e+01
1.001296e+01
1.001551e+01
1.001803e+01
1.002053e+01
1.002299e+01
1.002542e+01
1.002781e+01
1.003016e+01
1.003246e+01
1.003471e+01
1.003690e+01
1.003904e+01
1.004112e+01
1.004314e+01
1.004509e+01
1.004697e+01
1.004878e+01
1.005051e+01
1.005217e+01
1.005374e+01
1.005523e+01
1.005664e+01
1.005796e+01
1.005919e+01
1.006032e+01
1.006137e+01
1.006232e+01
1.006317e+01
1.006393e+01
1.006459e+01
1.006515e+01
1.006561e+01
1.006597e+01
1.006622e+01
1.006637e+01
1.006643e+01
1.006637e+01
1.006622e+01
1.006597e+01
1.006561e+01
1.006515e+01
1.006459e+01
1.006393e+01
1.006317e+01
1.006232e+01
1.006137e+01
1.006032e+01
1.005919e+01
1.005796e+01
1.005664e+01
1.005523e+01
1.005374e+01
1.005217e+01
1.005051e+01
1.004878e+01
1.004697e+01
1.004509e+01
1.004314e+01
1.004112e+01
1.003904e+01
1.003690e+01
1.003471e+01
1.003246e+01
1.003016e+01
1.002781e+01
1.002542e+01
1.002299e+01
1.002053e+01
1.001803e+01
1.001551e+01
1.001296e+01
1.001039e+01
1.000781e+01
1.000521e+01
1.000261e+01
1.000000e+01
1.000000e+01
1.000278e+01
1.000555e+01
1.000832e+01
1.001107e+01
1.001381e+01
1.001652e+01
1.001921e+01
1.002187e+01
1.002449e+01
1.002708e+01
1.002963e+01
1.003213e+01
1.003458e+01
1.003697e+01
1.003931e+01
1.004159e+01
1.004381e+01
1.004596e+01
1.004803e+01
1.005004e+01
1.005196e+01
1.005381e+01
1.005557e+01
1.005725e+01
1.005884e+01
1.006034e+01
1.006174e+01
1.006305e+01
1.006426e+01
1.006538e+01
1.006639e+01
1.006730e+01
1.006811e+01
1.006881e+01
1.006940e+01
1.006989e+01
1.007027e+01
1.007055e+01
1.007071e+01
1.007076e+01
1.007071e+01
1.007055e+01
1.007027e+01
1.006989e+01
1.006940e+01
1.006881e+01
1.006811e+01
1.006730e+01
1.006639e+01
1.006538e+01
1.006426e+01
1.006305e+01
1.006174e+01
1.006034e+01
1.005884e+01
1.005725e+01
1.005557e+01
1.005381e+01
1.005196e+01
1.005004e+01
1.004803e+01
1.004596e+01
1.004381e+01
1.004159e+01
1.003931e+01
1.003697e+01
1.003458e+01
1.003213e+01
1.002963e+01
1.002708e+01
1.002449e+01
1.002187e+01
1.001921e+01
1.001652e+01
1.001381e+01
1.001107e+01
1.000832e+01
1.000555e+01
1.000278e+01
1.000000e+01
1.000000e+01
1.000295e+01
1.000590e+01
1.000884e+01
1.001177e+01
1.001467e+01
1.001756e+01
1.002042e+01
1.002324e+01
1.002603e+01
1.002878e+01
1.003149e+01
1.003415e+01
1.003675e+01
1.003930e+01
1.004179e+01
1.004421e+01
1.004656e+01
1.004885e+01
1.005105e+01
1.005318e+01
1.005523e+01
1.005719e+01
1.005906e+01
1.006085e+01
1.006254e+01
1.006413e+01
1.006562e+01
1.006701e+01
1.006830e+01
1.006949e+01
1.007056e+01
1.007153e+01
1.007239e+01
1.007313e+01
1.007377e+01
1.007428e+01
1.007469e+01
1.007498e+01
1.007515e+01
1.007521e+01
1.007515e+01
1.007498e+01
1.007469e+01
1.007428e+01
1.007377e+01
1.007313e+01
1.007239e+01
1.007153e+01
1.007056e+01
1.006949e+01
1.006830e+01
1.006701e+01
1.006562e+01
1.006413e+01
1.006254e+01
1.006085e+01
1.005906e+01
1.005719e+01
1.005523e+01
1.005318e+01
1.005105e+01
1.004885e+01
1.004656e+01
1.004421e+01
1.004179e+01
1.003930e+01
1.003675e+01
1.003415e+01
1.003149e+01
1.002878e+01
1.002603e+01
1.002324e+01
1.002042e+01
1.001756e+01
1.001467e+01
1.001177e+01
1.000884e+01
1.000590e+01
1.000295e+01
1.000000e+01
1.000000e+01
1.000313e+01
1.000626e+01
1.000938e+01
1.001248e+01
1.001556e+01
1.001862e+01
1.002165e+01
1.002465e+01
1.002761e+01
1.003053e+01
1.003340e+01
1.003622e+01
1.003898e+01
1.004168e+01
1.004432e+01
1.004689e+01
1.004939e+01
1.005181e+01
1.005415e+01
1.005641e+01
1.005858e+01
1.006066e+01
1.006265e+01
1.006454e+01
1.006633e+01
1.006802e+01
1.006960e+01
1.007108e+01
1.007245e+01
1.007370e+01
1.007484e+01
1.007587e+01
1.007678e+01
1.007757e+01
1.007824e+01
1.007879e+01
1.007922e+01
1.007953e+01
1.007971e+01
1.007977e+01
1.007971e+01
1.007953e+01
1.007922e+01
1.007879e+01
1.007824e+01
1.007757e+01
1.007678e+01
1.007587e+01
1.007484e+01
1.007370e+01
1.007245e+01
1.007108e+01
1.006960e+01
1.006802e+01
1.006633e+01
1.006454e+01
1.006265e+01
1.006066e+01
1.005858e+01
1.005641e+01
1.005415e+01
1.005181e+01
1.004939e+01
1.004689e+01
1.004432e+01
1.004168e+01
1.003898e+01
1.003622e+01
1.003340e+01
1.003053e+01
1.002761e+01
1.002465e+01
1.002165e+01
1.001862e+01
1.001556e+01
1.001248e+01
1.000938e+01
1.000626e+01
1.000313e+01
1.000000e+01
1.000000e+01
1.000332e+01
1.000663e+01
1.000993e+01
1.001321e+01
1.001648e+01
1.001972e+01
1.002293e+01
1.002610e+01
1.002923e+01
1.003232e+01
1.003536e+01
1.003834e+01
1.004127e+01
1.004413e+01
1.004692e+01
1.004964e+01
1.005229e+01
1.005485e+01
1.005733e+01
1.005972e+01
1.006202e+01
1.006422e+01
1.006633e+01
1.006833e+01
1.007023e+01
1.007201e+01
1.007369e+01
1.007525e+01
1.007670e+01
1.007803e+01
1.007924e+01
1.008033e+01
1.008129e+01
1.008213e+01
1.008284e+01
1.008342e+01
1.008387e+01
1.008420e+01
1.008439e+01
1.008446e+01
1.008439e+01
1.008420e+01
1.008387e+01
1.008342e+01
1.008284e+01
1.008213e+01
1.008129e+01
1.008033e+01
1.007924e+01
1.007803e+01
1.007670e+01
1.007525e+01
1.007369e+01
1.007201e+01
1.007023e+01
1.006833e+01
1.006633e+01
1.006422e+01
1.006202e+01
1.005972e+01
1.005733e+01
1.005485e+01
1.005229e+01
1.004964e+01
1.004692e+01
1.004413e+01
1.004127e+01
1.003834e+01
1.003536e+01
1.003232e+01
1.002923e+01
1.002610e+01
1.002293e+01
1.001972e+01
1.001648e+01
1.001321e+01
1.000993e+01
1.000663e+01
1.000332e+01
1.000000e+01
1.000000e+01
1.000351e+01
1.000701e+01
1.001049e+01
1.001397e+01
1.001742e+01
1.002084e+01
1.002423e+01
1.002759e+01
1.003090e+01
1.003417e+01
1.003738e+01
1.004053e+01
1.004362e+01
1.004665e+01
1.004960e+01
1.005248e+01
1.005527e+01
1.005798e+01
1.006060e+01
1.006313e+01
1.006556e+01
1.006789e+01
1.007011e+01
1.007223e+01
1.007423e+01
1.007612e+01
1.007789e+01
1.007955e+01
1.008108e+01
1.008248e+01
1.008376e+01
1.008491e+01
1.008592e+01
1.008681e+01
1.008756e+01
1.008818e+01
1.008866e+01
1.008900e+01
1.008921e+01
1.008928e+01
1.008921e+01
1.008900e+01
1.008866e+01
1.008818e+01
1.008756e+01
1.008681e+01
1.008592e+01
1.008491e+01
1.008376e+01
1.008248e+01
1.008108e+01
1.007955e+01
1.007789e+01
1.007612e+01
1.007423e+01
1.007223e+01
1.007011e+01
1.006789e+01
1.006556e+01
1.006313e+01
1.006060e+01
1.005798e+01
1.005527e+01
1.005248e+01
1.004960e+01
1.004665e+01
1.004362e+01
1.004053e+01
1.003738e+01
1.003417e+01
1.003090e+01
1.002759e+01
1.002423e+01
1.002084e+01
1.001742e+01
1.001397e+01
1.001049e+01
1.000701e+01
1.000351e+01
1.000000e+01
1.000000e+01
1.000370e+01
1.000739e+01
1.001108e+01
1.001474e+01
1.001838e+01
1.002200e+01
1.002558e+01
1.002912e+01
1.003262e+01
1.003606e+01
1.003945e+01
1.004278e+01
1.004604e+01
1.004924e+01
1.005235e+01
1.005539e+01
1.005834e+01
1.006120e+01
1.006396e+01
1.006663e+01
1.006920e+01
1.007165e+01
1.007400e+01
1.007623e+01
1.007835e+01
1.008034e+01
1.008222e+01
1.008396e+01
1.008557e+01
1.008706e+01
1.008841e+01
1.008962e+01
1.009069e+01
1.009163e+01
1.009242e+01
1.009307e+01
1.009358e+01
1.009394e+01
1.009416e+01
1.009423e+01
1.009416e+01
1.009394e+01
1.009358e+01
1.009307e+01
1.009242e+01
1.009163e+01
1.009069e+01
1.008962e+01
1.008841e+01
1.008706e+01
1.008557e+01
1.008396e+01
1.008222e+01
1.008034e+01
1.007835e+01
1.007623e+01
1.007400e+01
1.007165e+01
1.006920e+01
1.006663e+01
1.006396e+01
1.006120e+01
1.005834e+01
1.005539e+01
1.005235e+01
1.004924e+01
1.004604e+01
1.004278e+01
1.003945e+01
1.003606e+01
1.003262e+01
1.002912e+01
1.002558e+01
1.002200e+01
1.001838e+01
1.001474e+01
1.001108e+01
1.000739e+01
1.000370e+01
1.000000e+01
1.000000e+01
1.000390e+01
1.000779e+01
1.001168e+01
1.001554e+01
1.001938e+01
1.002319e+01
1.002696e+01
1.003070e+01
1.003438e+01
1.003801e+01
1.004159e+01
1.004510e+01
1.004854e+01
1.005190e+01
1.005518e+01
1.005838e+01
1.006149e+01
1.006451e+01
1.006743e+01
1.007024e+01
1.007294e+01
1.007553e+01
1.007801e+01
1.008036e+01
1.008259e+01
1.008469e+01
1.008666e+01
1.008850e+01
1.009020e+01
1.009177e+01
1.009319e+01
1.009447e+01
1.009560e+01
1.009658e+01
1.009742e+01
1.009811e+01
1.009864e+01
1.009902e+01
1.009925e+01
1.009933e+01
1.009925e+01
1.009902e+01
1.009864e+01
1.009811e+01
1.009742e+01
1.009658e+01
1.009560e+01
1.009447e+01
1.009319e+01
1.009177e+01
1.009021e+01
1.008850e+01
1.008666e+01
1.008469e+01
1.008259e+01
1.008036e+01
1.007801e+01
1.007553e+01
1.007294e+01
1.007024e+01
1.006743e+01
1.006451e+01
1.006149e+01
1.005838e+01
1.005518e+01
1.005190e+01
1.004854e+01
1.004510e+01
1.004159e+01
1.003801e+01
1.003438e+01
1.003070e+01
1.002696e+01
1.002319e+01
1.001938e+01
1.001554e+01
1.001168e+01
1.000779e+01
1.000390e+01
1.000000e+01
1.000000e+01
1.000411e+01
1.000821e+01
1.001229e+01
1.001636e+01
1.002040e+01
1.002442e+01
1.002839e+01
1.003232e+01
1.003620e+01
1.004002e+01
1.004379e+01
1.004748e+01
1.005110e+01
1.005464e+01
1.005810e+01
1.006147e+01
1.006475e+01
1.006792e+01
1.007099e+01
1.007395e+01
1.007680e+01
1.007952e+01
1.008213e+01
1.008461e+01
1.008696e+01
1.008917e+01
1.009125e+01
1.009318e+01
1.009497e+01
1.009662e+01
1.009812e+01
1.009946e+01
1.010065e+01
1.010169e+01
1.010257e+01
1.010329e+01
1.010386e+01
1.010426e+01
1.010450e+01
1.010458e+01
1.010450e+01
1.010426e+01
1.010386e+01
1.010329e+01
1.010257e+01
1.010169e+01
1.010065e+01
1.009946e+01
1.009812e+01
1.009662e+01
1.009497e+01
1.009318e+01
1.009125e+01
1.008917e+01
1.008696e+01
1.008461e+01
1.008213e+01
1.007952e+01
1.007680e+01
1.007395e+01
1.007099e+01
1.006792e+01
1.006475e+01
1.006147e+01
1.005810e+01
1.005464e+01
1.005110e+01
1.004748e+01
1.004379e+01
1.004002e+01
1.003620e+01
1.003232e+01
1.002839e+01
1.002442e+01
1.002040e+01
1.001636e+01
1.001229e+01
1.000821e+01
1.000411e+01
1.000000e+01
1.000000e+01
1.000432e+01
1.000863e+01
1.001293e+01
1.001721e+01
1.002146e+01
1.002568e+01
1.002986e+01
1.003399e+01
1.003807e+01
1.004209e+01
1.004605e+01
1.004994e+01
1.005375e+01
1.005747e+01
1.006111e+01
1.006465e+01
1.006810e+01
1.007144e+01
1.007467e+01
1.007778e+01
1.008077e+01
1.008364e+01
1.008638e+01
1.008899e+01
1.009146e+01
1.009379e+01
1.009597e+01
1.009801e+01
1.009989e+01
1.010162e+01
1.010320e+01
1.010461e+01
1.010587e+01
1.010696e+01
1.010788e+01
1.010864e+01
1.010923e+01
1.010966e+01
1.010991e+01
1.011000e+01
1.010991e+01
1.010966e+01
1.010923e+01
1.010864e+01
1.010788e+01
1.010696e+01
1.010587e+01
1.010461e+01
1.010320e+01
1.010162e+01
1.009989e+01
1.009801e+01
1.009597e+01
1.009379e+01
1.009146e+01
1.008899e+01
1.008638e+01
1.008364e+01
1.008077e+01
1.007778e+01
1.007467e+01
1.007144e+01
1.006810e+01
1.006465e+01
1.006111e+01
1.005747e+01
1.005375e+01
1.004994e+01
1.004605e+01
1.004209e+01
1.003807e+01
1.003399e+01
1.002986e+01
1.002568e+01
1.002146e+01
1.001721e+01
1.001293e+01
1.000863e+01
1.000432e+01
1.000000e+01
1.000000e+01
1.000454e+01
1.000907e+01
1.001359e+01
1.001808e+01
1.002255e+01
1.002698e+01
1.003137e+01
1.003572e+01
1.004000e+01
1.004423e+01
1.004839e+01
1.005247e+01
1.005648e+01
1.006039e+01
1.006421e+01
1.006794e+01
1.007155e+01
1.007506e+01
1.007846e+01
1.008173e+01