# vtk DataFile Version 3.0
steady_diffusion_2D
ASCII
DATASET STRUCTURED_POINTS
DIMENSIONS 10 10 1
ORIGIN 0.0 0.0 0.0
SPACING 0.1 0.1 1.0
POINT_DATA 100
SCALARS Temperature double 1
LOOKUP_TABLE default
1.000215e+001
1.000623e+001
1.000971e+001
1.001223e+001
1.001356e+001
1.001356e+001
1.001223e+001
1.000971e+001
1.000623e+001
1.000215e+001
1.000665e+001
1.001931e+001
1.003008e+001
1.003790e+001
1.004201e+001
1.004201e+001
1.003790e+001
1.003008e+001
1.001931e+001
1.000665e+001
1.001181e+001
1.003428e+001
1.005339e+001
1.006727e+001
1.007457e+001
1.007457e+001
1.006727e+001
1.005339e+001
1.003428e+001
1.001181e+001
1.001812e+001
1.005260e+001
1.008193e+001
1.010323e+001
1.011443e+001
1.011443e+001
1.010323e+001
1.008193e+001
1.005260e+001
1.001812e+001
1.002621e+001
1.007607e+001
1.011848e+001
1.014930e+001
1.016550e+001
1.016550e+001
1.014930e+001
1.011848e+001
1.007607e+001
1.002621e+001
1.003687e+001
1.010699e+001
1.016664e+001
1.020998e+001
1.023276e+001
1.023276e+001
1.020998e+001
1.016664e+001
1.010699e+001
1.003687e+001
1.005113e+001
1.014838e+001
1.023111e+001
1.029121e+001
1.032281e+001
1.032281e+001
1.029121e+001
1.023111e+001
1.014838e+001
1.005113e+001
1.007039e+001
1.020429e+001
1.031820e+001
1.040095e+001
1.044446e+001
1.044446e+001
1.040095e+001
1.031820e+001
1.020429e+001
1.007039e+001
1.009655e+001
1.028021e+001
1.043643e+001
1.054994e+001
1.060961e+001
1.060961e+001
1.054994e+001
1.043643e+001
1.028021e+001
1.009655e+001
1.013216e+001
1.038355e+001
1.059739e+001
1.075275e+001
1.083444e+001
1.083444e+001
1.075275e+001
1.059739e+001
1.038355e+001
1.013216e+001
