# vtk DataFile Version 3.0
Analytical_solution_80x80
ASCII
DATASET STRUCTURED_POINTS
DIMENSIONS 80 80 1
ORIGIN 0.0 0.0 0.0
SPACING 0.0125 0.0125 1.0
POINT_DATA 6400
SCALARS Analytical_Temperature double 1
LOOKUP_TABLE default
1.000003e+001
1.000010e+001
1.000017e+001
1.000023e+001
1.000030e+001
1.000036e+001
1.000043e+001
1.000049e+001
1.000056e+001
1.000062e+001
1.000068e+001
1.000074e+001
1.000080e+001
1.000086e+001
1.000092e+001
1.000097e+001
1.000103e+001
1.000108e+001
1.000113e+001
1.000118e+001
1.000123e+001
1.000127e+001
1.000131e+001
1.000136e+001
1.000139e+001
1.000143e+001
1.000147e+001
1.000150e+001
1.000153e+001
1.000156e+001
1.000158e+001
1.000161e+001
1.000163e+001
1.000165e+001
1.000166e+001
1.000167e+001
1.000168e+001
1.000169e+001
1.000170e+001
1.000170e+001
1.000170e+001
1.000170e+001
1.000169e+001
1.000168e+001
1.000167e+001
1.000166e+001
1.000165e+001
1.000163e+001
1.000161e+001
1.000158e+001
1.000156e+001
1.000153e+001
1.000150e+001
1.000147e+001
1.000143e+001
1.000139e+001
1.000136e+001
1.000131e+001
1.000127e+001
1.000123e+001
1.000118e+001
1.000113e+001
1.000108e+001
1.000103e+001
1.000097e+001
1.000092e+001
1.000086e+001
1.000080e+001
1.000074e+001
1.000068e+001
1.000062e+001
1.000056e+001
1.000049e+001
1.000043e+001
1.000036e+001
1.000030e+001
1.000023e+001
1.000017e+001
1.000010e+001
1.000003e+001
1.000010e+001
1.000030e+001
1.000050e+001
1.000070e+001
1.000090e+001
1.000109e+001
1.000129e+001
1.000148e+001
1.000167e+001
1.000186e+001
1.000205e+001
1.000223e+001
1.000241e+001
1.000258e+001
1.000275e+001
1.000292e+001
1.000308e+001
1.000324e+001
1.000339e+001
1.000354e+001
1.000368e+001
1.000381e+001
1.000395e+001
1.000407e+001
1.000419e+001
1.000430e+001
1.000440e+001
1.000450e+001
1.000459e+001
1.000468e+001
1.000475e+001
1.000482e+001
1.000488e+001
1.000494e+001
1.000498e+001
1.000502e+001
1.000506e+001
1.000508e+001
1.000509e+001
1.000510e+001
1.000510e+001
1.000509e+001
1.000508e+001
1.000506e+001
1.000502e+001
1.000498e+001
1.000494e+001
1.000488e+001
1.000482e+001
1.000475e+001
1.000468e+001
1.000459e+001
1.000450e+001
1.000440e+001
1.000430e+001
1.000419e+001
1.000407e+001
1.000395e+001
1.000381e+001
1.000368e+001
1.000354e+001
1.000339e+001
1.000324e+001
1.000308e+001
1.000292e+001
1.000275e+001
1.000258e+001
1.000241e+001
1.000223e+001
1.000205e+001
1.000186e+001
1.000167e+001
1.000148e+001
1.000129e+001
1.000109e+001
1.000090e+001
1.000070e+001
1.000050e+001
1.000030e+001
1.000010e+001
1.000017e+001
1.000050e+001
1.000083e+001
1.000117e+001
1.000150e+001
1.000182e+001
1.000215e+001
1.000247e+001
1.000279e+001
1.000310e+001
1.000341e+001
1.000372e+001
1.000401e+001
1.000431e+001
1.000459e+001
1.000487e+001
1.000514e+001
1.000540e+001
1.000566e+001
1.000590e+001
1.000614e+001
1.000636e+001
1.000658e+001
1.000679e+001
1.000699e+001
1.000717e+001
1.000735e+001
1.000751e+001
1.000766e+001
1.000780e+001
1.000793e+001
1.000804e+001
1.000815e+001
1.000824e+001
1.000832e+001
1.000838e+001
1.000843e+001
1.000847e+001
1.000850e+001
1.000851e+001
1.000851e+001
1.000850e+001
1.000847e+001
1.000843e+001
1.000838e+001
1.000832e+001
1.000824e+001
1.000815e+001
1.000804e+001
1.000793e+001
1.000780e+001
1.000766e+001
1.000751e+001
1.000735e+001
1.000717e+001
1.000699e+001
1.000679e+001
1.000658e+001
1.000636e+001
1.000614e+001
1.000590e+001
1.000566e+001
1.000540e+001
1.000514e+001
1.000487e+001
1.000459e+001
1.000431e+001
1.000401e+001
1.000372e+001
1.000341e+001
1.000310e+001
1.000279e+001
1.000247e+001
1.000215e+001
1.000182e+001
1.000150e+001
1.000117e+001
1.000083e+001
1.000050e+001
1.000017e+001
1.000023e+001
1.000070e+001
1.000117e+001
1.000164e+001
1.000210e+001
1.000256e+001
1.000301e+001
1.000347e+001
1.000391e+001
1.000435e+001
1.000478e+001
1.000521e+001
1.000563e+001
1.000604e+001
1.000644e+001
1.000683e+001
1.000721e+001
1.000757e+001
1.000793e+001
1.000827e+001
1.000861e+001
1.000892e+001
1.000923e+001
1.000952e+001
1.000979e+001
1.001006e+001
1.001030e+001
1.001053e+001
1.001074e+001
1.001094e+001
1.001112e+001
1.001128e+001
1.001142e+001
1.001155e+001
1.001166e+001
1.001175e+001
1.001183e+001
1.001188e+001
1.001192e+001
1.001194e+001
1.001194e+001
1.001192e+001
1.001188e+001
1.001183e+001
1.001175e+001
1.001166e+001
1.001155e+001
1.001142e+001
1.001128e+001
1.001112e+001
1.001094e+001
1.001074e+001
1.001053e+001
1.001030e+001
1.001006e+001
1.000979e+001
1.000952e+001
1.000923e+001
1.000892e+001
1.000861e+001
1.000827e+001
1.000793e+001
1.000757e+001
1.000721e+001
1.000683e+001
1.000644e+001
1.000604e+001
1.000563e+001
1.000521e+001
1.000478e+001
1.000435e+001
1.000391e+001
1.000347e+001
1.000301e+001
1.000256e+001
1.000210e+001
1.000164e+001
1.000117e+001
1.000070e+001
1.000023e+001
1.000030e+001
1.000091e+001
1.000151e+001
1.000211e+001
1.000270e+001
1.000330e+001
1.000388e+001
1.000446e+001
1.000504e+001
1.000561e+001
1.000616e+001
1.000671e+001
1.000725e+001
1.000778e+001
1.000829e+001
1.000879e+001
1.000928e+001
1.000976e+001
1.001022e+001
1.001066e+001
1.001109e+001
1.001150e+001
1.001189e+001
1.001226e+001
1.001262e+001
1.001295e+001
1.001327e+001
1.001357e+001
1.001384e+001
1.001409e+001
1.001432e+001
1.001453e+001
1.001472e+001
1.001488e+001
1.001502e+001
1.001514e+001
1.001524e+001
1.001531e+001
1.001535e+001
1.001538e+001
1.001538e+001
1.001535e+001
1.001531e+001
1.001524e+001
1.001514e+001
1.001502e+001
1.001488e+001
1.001472e+001
1.001453e+001
1.001432e+001
1.001409e+001
1.001384e+001
1.001357e+001
1.001327e+001
1.001295e+001
1.001262e+001
1.001226e+001
1.001189e+001
1.001150e+001
1.001109e+001
1.001066e+001
1.001022e+001
1.000976e+001
1.000928e+001
1.000879e+001
1.000829e+001
1.000778e+001
1.000725e+001
1.000671e+001
1.000616e+001
1.000561e+001
1.000504e+001
1.000446e+001
1.000388e+001
1.000330e+001
1.000270e+001
1.000211e+001
1.000151e+001
1.000091e+001
1.000030e+001
1.000037e+001
1.000111e+001
1.000185e+001
1.000258e+001
1.000331e+001
1.000404e+001
1.000476e+001
1.000547e+001
1.000618e+001
1.000687e+001
1.000755e+001
1.000823e+001
1.000888e+001
1.000953e+001
1.001016e+001
1.001078e+001
1.001138e+001
1.001196e+001
1.001252e+001
1.001306e+001
1.001359e+001
1.001409e+001
1.001457e+001
1.001503e+001
1.001546e+001
1.001587e+001
1.001626e+001
1.001662e+001
1.001696e+001
1.001727e+001
1.001755e+001
1.001781e+001
1.001804e+001
1.001824e+001
1.001841e+001
1.001855e+001
1.001867e+001
1.001876e+001
1.001882e+001
1.001884e+001
1.001884e+001
1.001882e+001
1.001876e+001
1.001867e+001
1.001855e+001
1.001841e+001
1.001824e+001
1.001804e+001
1.001781e+001
1.001755e+001
1.001727e+001
1.001696e+001
1.001662e+001
1.001626e+001
1.001587e+001
1.001546e+001
1.001503e+001
1.001457e+001
1.001409e+001
1.001359e+001
1.001306e+001
1.001252e+001
1.001196e+001
1.001138e+001
1.001078e+001
1.001016e+001
1.000953e+001
1.000888e+001
1.000823e+001
1.000755e+001
1.000687e+001
1.000618e+001
1.000547e+001
1.000476e+001
1.000404e+001
1.000331e+001
1.000258e+001
1.000185e+001
1.000111e+001
1.000037e+001
1.000044e+001
1.000132e+001
1.000219e+001
1.000306e+001
1.000393e+001
1.000479e+001
1.000564e+001
1.000649e+001
1.000732e+001
1.000814e+001
1.000895e+001
1.000975e+001
1.001053e+001
1.001130e+001
1.001205e+001
1.001278e+001
1.001349e+001
1.001417e+001
1.001484e+001
1.001549e+001
1.001611e+001
1.001670e+001
1.001727e+001
1.001781e+001
1.001833e+001
1.001882e+001
1.001928e+001
1.001970e+001
1.002010e+001
1.002047e+001
1.002081e+001
1.002111e+001
1.002138e+001
1.002162e+001
1.002182e+001
1.002200e+001
1.002213e+001
1.002224e+001
1.002230e+001
1.002234e+001
1.002234e+001
1.002230e+001
1.002224e+001
1.002213e+001
1.002200e+001
1.002182e+001
1.002162e+001
1.002138e+001
1.002111e+001
1.002081e+001
1.002047e+001
1.002010e+001
1.001970e+001
1.001928e+001
1.001882e+001
1.001833e+001
1.001781e+001
1.001727e+001
1.001670e+001
1.001611e+001
1.001549e+001
1.001484e+001
1.001417e+001
1.001349e+001
1.001278e+001
1.001205e+001
1.001130e+001
1.001053e+001
1.000975e+001
1.000895e+001
1.000814e+001
1.000732e+001
1.000649e+001
1.000564e+001
1.000479e+001
1.000393e+001
1.000306e+001
1.000219e+001
1.000132e+001
1.000044e+001
1.000051e+001
1.000152e+001
1.000254e+001
1.000354e+001
1.000455e+001
1.000554e+001
1.000653e+001
1.000751e+001
1.000848e+001
1.000943e+001
1.001037e+001
1.001129e+001
1.001220e+001
1.001308e+001
1.001395e+001
1.001479e+001
1.001562e+001
1.001641e+001
1.001719e+001
1.001793e+001
1.001865e+001
1.001934e+001
1.002000e+001
1.002063e+001
1.002123e+001
1.002179e+001
1.002232e+001
1.002282e+001
1.002328e+001
1.002370e+001
1.002409e+001
1.002444e+001
1.002476e+001
1.002503e+001
1.002527e+001
1.002547e+001
1.002563e+001
1.002575e+001
1.002583e+001
1.002587e+001
1.002587e+001
1.002583e+001
1.002575e+001
1.002563e+001
1.002547e+001
1.002527e+001
1.002503e+001
1.002476e+001
1.002444e+001
1.002409e+001
1.002370e+001
1.002328e+001
1.002282e+001
1.002232e+001
1.002179e+001
1.002123e+001
1.002063e+001
1.002000e+001
1.001934e+001
1.001865e+001
1.001793e+001
1.001719e+001
1.001641e+001
1.001562e+001
1.001479e+001
1.001395e+001
1.001308e+001
1.001220e+001
1.001129e+001
1.001037e+001
1.000943e+001
1.000848e+001
1.000751e+001
1.000653e+001
1.000554e+001
1.000455e+001
1.000354e+001
1.000254e+001
1.000152e+001
1.000051e+001
1.000058e+001
1.000173e+001
1.000289e+001
1.000403e+001
1.000518e+001
1.000631e+001
1.000743e+001
1.000855e+001
1.000965e+001
1.001073e+001
1.001180e+001
1.001285e+001
1.001388e+001
1.001489e+001
1.001587e+001
1.001684e+001
1.001777e+001
1.001868e+001
1.001956e+001
1.002041e+001
1.002122e+001
1.002201e+001
1.002276e+001
1.002348e+001
1.002415e+001
1.002480e+001
1.002540e+001
1.002597e+001
1.002649e+001
1.002698e+001
1.002742e+001
1.002782e+001
1.002818e+001
1.002849e+001
1.002876e+001
1.002898e+001
1.002917e+001
1.002930e+001
1.002939e+001
1.002944e+001
1.002944e+001
1.002939e+001
1.002930e+001
1.002917e+001
1.002898e+001
1.002876e+001
1.002849e+001
1.002818e+001
1.002782e+001
1.002742e+001
1.002698e+001
1.002649e+001
1.002597e+001
1.002540e+001
1.002480e+001
1.002415e+001
1.002348e+001
1.002276e+001
1.002201e+001
1.002122e+001
1.002041e+001
1.001956e+001
1.001868e+001
1.001777e+001
1.001684e+001
1.001587e+001
1.001489e+001
1.001388e+001
1.001285e+001
1.001180e+001
1.001073e+001
1.000965e+001
1.000855e+001
1.000743e+001
1.000631e+001
1.000518e+001
1.000403e+001
1.000289e+001
1.000173e+001
1.000058e+001
1.000065e+001
1.000195e+001
1.000324e+001
1.000453e+001
1.000581e+001
1.000708e+001
1.000835e+001
1.000960e+001
1.001083e+001
1.001205e+001
1.001325e+001
1.001443e+001
1.001558e+001
1.001672e+001
1.001782e+001
1.001890e+001
1.001995e+001
1.002097e+001
1.002196e+001
1.002291e+001
1.002383e+001
1.002471e+001
1.002555e+001
1.002636e+001
1.002712e+001
1.002784e+001
1.002852e+001
1.002915e+001
1.002974e+001
1.003029e+001
1.003078e+001
1.003123e+001
1.003163e+001
1.003199e+001
1.003229e+001
1.003254e+001
1.003275e+001
1.003290e+001
1.003300e+001
1.003305e+001
1.003305e+001
1.003300e+001
1.003290e+001
1.003275e+001
1.003254e+001
1.003229e+001
1.003199e+001
1.003163e+001
1.003123e+001
1.003078e+001
1.003029e+001
1.002974e+001
1.002915e+001
1.002852e+001
1.002784e+001
1.002712e+001
1.002636e+001
1.002555e+001
1.002471e+001
1.002383e+001
1.002291e+001
1.002196e+001
1.002097e+001
1.001995e+001
1.001890e+001
1.001782e+001
1.001672e+001
1.001558e+001
1.001443e+001
1.001325e+001
1.001205e+001
1.001083e+001
1.000960e+001
1.000835e+001
1.000708e+001
1.000581e+001
1.000453e+001
1.000324e+001
1.000195e+001
1.000065e+001
1.000072e+001
1.000216e+001
1.000360e+001
1.000503e+001
1.000646e+001
1.000787e+001
1.000927e+001
1.001066e+001
1.001203e+001
1.001338e+001
1.001472e+001
1.001603e+001
1.001731e+001
1.001857e+001
1.001980e+001
1.002100e+001
1.002217e+001
1.002330e+001
1.002439e+001
1.002545e+001
1.002647e+001
1.002745e+001
1.002839e+001
1.002928e+001
1.003013e+001
1.003093e+001
1.003168e+001
1.003239e+001
1.003304e+001
1.003365e+001
1.003420e+001
1.003470e+001
1.003514e+001
1.003553e+001
1.003587e+001
1.003615e+001
1.003638e+001
1.003655e+001
1.003666e+001
1.003672e+001
1.003672e+001
1.003666e+001
1.003655e+001
1.003638e+001
1.003615e+001
1.003587e+001
1.003553e+001
1.003514e+001
1.003470e+001
1.003420e+001
1.003365e+001
1.003304e+001
1.003239e+001
1.003168e+001
1.003093e+001
1.003013e+001
1.002928e+001
1.002839e+001
1.002745e+001
1.002647e+001
1.002545e+001
1.002439e+001
1.002330e+001
1.002217e+001
1.002100e+001
1.001980e+001
1.001857e+001
1.001731e+001
1.001603e+001
1.001472e+001
1.001338e+001
1.001203e+001
1.001066e+001
1.000927e+001
1.000787e+001
1.000646e+001
1.000503e+001
1.000360e+001
1.000216e+001
1.000072e+001
1.000079e+001
1.000238e+001
1.000396e+001
1.000554e+001
1.000711e+001
1.000867e+001
1.001021e+001
1.001174e+001
1.001325e+001
1.001474e+001
1.001621e+001
1.001765e+001
1.001907e+001
1.002045e+001
1.002181e+001
1.002313e+001
1.002441e+001
1.002566e+001
1.002687e+001
1.002803e+001
1.002916e+001
1.003023e+001
1.003127e+001
1.003225e+001
1.003318e+001
1.003407e+001
1.003490e+001
1.003567e+001
1.003639e+001
1.003706e+001
1.003766e+001
1.003821e+001
1.003871e+001
1.003914e+001
1.003951e+001
1.003982e+001
1.004007e+001
1.004025e+001
1.004038e+001
1.004044e+001
1.004044e+001
1.004038e+001
1.004025e+001
1.004007e+001
1.003982e+001
1.003951e+001
1.003914e+001
1.003871e+001
1.003821e+001
1.003766e+001
1.003706e+001
1.003639e+001
1.003567e+001
1.003490e+001
1.003407e+001
1.003318e+001
1.003225e+001
1.003127e+001
1.003023e+001
1.002916e+001
1.002803e+001
1.002687e+001
1.002566e+001
1.002441e+001
1.002313e+001
1.002181e+001
1.002045e+001
1.001907e+001
1.001765e+001
1.001621e+001
1.001474e+001
1.001325e+001
1.001174e+001
1.001021e+001
1.000867e+001
1.000711e+001
1.000554e+001
1.000396e+001
1.000238e+001
1.000079e+001
1.000087e+001
1.000260e+001
1.000434e+001
1.000606e+001
1.000778e+001
1.000948e+001
1.001117e+001
1.001284e+001
1.001449e+001
1.001612e+001
1.001773e+001
1.001930e+001
1.002085e+001
1.002237e+001
1.002385e+001
1.002529e+001
1.002670e+001
1.002806e+001
1.002938e+001
1.003066e+001
1.003188e+001
1.003306e+001
1.003419e+001
1.003527e+001
1.003629e+001
1.003725e+001
1.003816e+001
1.003901e+001
1.003980e+001
1.004052e+001
1.004119e+001
1.004179e+001
1.004233e+001
1.004280e+001
1.004320e+001
1.004354e+001
1.004382e+001
1.004402e+001
1.004416e+001
1.004422e+001
1.004422e+001
1.004416e+001
1.004402e+001
1.004382e+001
1.004354e+001
1.004320e+001
1.004280e+001
1.004233e+001
1.004179e+001
1.004119e+001
1.004052e+001
1.003980e+001
1.003901e+001
1.003816e+001
1.003725e+001
1.003629e+001
1.003527e+001
1.003419e+001
1.003306e+001
1.003188e+001
1.003066e+001
1.002938e+001
1.002806e+001
1.002670e+001
1.002529e+001
1.002385e+001
1.002237e+001
1.002085e+001
1.001930e+001
1.001773e+001
1.001612e+001
1.001449e+001
1.001284e+001
1.001117e+001
1.000948e+001
1.000778e+001
1.000606e+001
1.000434e+001
1.000260e+001
1.000087e+001
1.000094e+001
1.000283e+001
1.000471e+001
1.000659e+001
1.000845e+001
1.001031e+001
1.001214e+001
1.001396e+001
1.001575e+001
1.001753e+001
1.001927e+001
1.002099e+001
1.002267e+001
1.002431e+001
1.002592e+001
1.002749e+001
1.002902e+001
1.003051e+001
1.003194e+001
1.003333e+001
1.003466e+001
1.003594e+001
1.003717e+001
1.003834e+001
1.003945e+001
1.004050e+001
1.004149e+001
1.004241e+001
1.004326e+001
1.004406e+001
1.004478e+001
1.004543e+001
1.004602e+001
1.004653e+001
1.004697e+001
1.004734e+001
1.004763e+001
1.004785e+001
1.004800e+001
1.004808e+001
1.004808e+001
1.004800e+001
1.004785e+001
1.004763e+001
1.004734e+001
1.004697e+001
1.004653e+001
1.004602e+001
1.004543e+001
1.004478e+001
1.004406e+001
1.004326e+001
1.004241e+001
1.004149e+001
1.004050e+001
1.003945e+001
1.003834e+001
1.003717e+001
1.003594e+001
1.003466e+001
1.003333e+001
1.003194e+001
1.003051e+001
1.002902e+001
1.002749e+001
1.002592e+001
1.002431e+001
1.002267e+001
1.002099e+001
1.001927e+001
1.001753e+001
1.001575e+001
1.001396e+001
1.001214e+001
1.001031e+001
1.000845e+001
1.000659e+001
1.000471e+001
1.000283e+001
1.000094e+001
1.000102e+001
1.000306e+001
1.000510e+001
1.000713e+001
1.000914e+001
1.001115e+001
1.001313e+001
1.001510e+001
1.001704e+001
1.001896e+001
1.002084e+001
1.002270e+001
1.002452e+001
1.002630e+001
1.002804e+001
1.002974e+001
1.003139e+001
1.003300e+001
1.003455e+001
1.003605e+001
1.003749e+001
1.003888e+001
1.004021e+001
1.004147e+001
1.004267e+001
1.004381e+001
1.004487e+001
1.004587e+001
1.004680e+001
1.004765e+001
1.004844e+001
1.004914e+001
1.004977e+001
1.005033e+001
1.005080e+001
1.005120e+001
1.005152e+001
1.005176e+001
1.005192e+001
1.005200e+001
1.005200e+001
1.005192e+001
1.005176e+001
1.005152e+001
1.005120e+001
1.005080e+001
1.005033e+001
1.004977e+001
1.004914e+001
1.004844e+001
1.004765e+001
1.004680e+001
1.004587e+001
1.004487e+001
1.004381e+001
1.004267e+001
1.004147e+001
1.004021e+001
1.003888e+001
1.003749e+001
1.003605e+001
1.003455e+001
1.003300e+001
1.003139e+001
1.002974e+001
1.002804e+001
1.002630e+001
1.002452e+001
1.002270e+001
1.002084e+001
1.001896e+001
1.001704e+001
1.001510e+001
1.001313e+001
1.001115e+001
1.000914e+001
1.000713e+001
1.000510e+001
1.000306e+001
1.000102e+001
1.000110e+001
1.000330e+001
1.000549e+001
1.000768e+001
1.000985e+001
1.001201e+001
1.001414e+001
1.001626e+001
1.001835e+001
1.002042e+001
1.002245e+001
1.002445e+001
1.002641e+001
1.002833e+001
1.003020e+001
1.003203e+001
1.003381e+001
1.003554e+001
1.003721e+001
1.003883e+001
1.004038e+001
1.004188e+001
1.004330e+001
1.004467e+001
1.004596e+001
1.004718e+001
1.004833e+001
1.004941e+001
1.005040e+001
1.005133e+001
1.005217e+001
1.005293e+001
1.005361e+001
1.005421e+001
1.005472e+001
1.005515e+001
1.005549e+001
1.005575e+001
1.005592e+001
1.005601e+001
1.005601e+001
1.005592e+001
1.005575e+001
1.005549e+001
1.005515e+001
1.005472e+001
1.005421e+001
1.005361e+001
1.005293e+001
1.005217e+001
1.005133e+001
1.005040e+001
1.004941e+001
1.004833e+001
1.004718e+001
1.004596e+001
1.004467e+001
1.004330e+001
1.004188e+001
1.004038e+001
1.003883e+001
1.003721e+001
1.003554e+001
1.003381e+001
1.003203e+001
1.003020e+001
1.002833e+001
1.002641e+001
1.002445e+001
1.002245e+001
1.002042e+001
1.001835e+001
1.001626e+001
1.001414e+001
1.001201e+001
1.000985e+001
1.000768e+001
1.000549e+001
1.000330e+001
1.000110e+001
1.000118e+001
1.000354e+001
1.000589e+001
1.000824e+001
1.001057e+001
1.001288e+001
1.001518e+001
1.001745e+001
1.001970e+001
1.002191e+001
1.002409e+001
1.002623e+001
1.002834e+001
1.003040e+001
1.003241e+001
1.003437e+001
1.003628e+001
1.003814e+001
1.003993e+001
1.004167e+001
1.004333e+001
1.004494e+001
1.004647e+001
1.004793e+001
1.004932e+001
1.005063e+001
1.005186e+001
1.005302e+001
1.005409e+001
1.005508e+001
1.005598e+001
1.005680e+001
1.005753e+001
1.005817e+001
1.005872e+001
1.005918e+001
1.005955e+001
1.005983e+001
1.006001e+001
1.006010e+001
1.006010e+001
1.006001e+001
1.005983e+001
1.005955e+001
1.005918e+001
1.005872e+001
1.005817e+001
1.005753e+001
1.005680e+001
1.005598e+001
1.005508e+001
1.005409e+001
1.005302e+001
1.005186e+001
1.005063e+001
1.004932e+001
1.004793e+001
1.004647e+001
1.004494e+001
1.004333e+001
1.004167e+001
1.003993e+001
1.003814e+001
1.003628e+001
1.003437e+001
1.003241e+001
1.003040e+001
1.002834e+001
1.002623e+001
1.002409e+001
1.002191e+001
1.001970e+001
1.001745e+001
1.001518e+001
1.001288e+001
1.001057e+001
1.000824e+001
1.000589e+001
1.000354e+001
1.000118e+001
1.000126e+001
1.000379e+001
1.000630e+001
1.000881e+001
1.001130e+001
1.001378e+001
1.001624e+001
1.001867e+001
1.002107e+001
1.002344e+001
1.002577e+001
1.002806e+001
1.003031e+001
1.003251e+001
1.003467e+001
1.003677e+001
1.003881e+001
1.004079e+001
1.004271e+001
1.004457e+001
1.004635e+001
1.004807e+001
1.004971e+001
1.005127e+001
1.005275e+001
1.005416e+001
1.005548e+001
1.005671e+001
1.005786e+001
1.005891e+001
1.005988e+001
1.006075e+001
1.006153e+001
1.006222e+001
1.006281e+001
1.006330e+001
1.006370e+001
1.006399e+001
1.006419e+001
1.006429e+001
1.006429e+001
1.006419e+001
1.006399e+001
1.006370e+001
1.006330e+001
1.006281e+001
1.006222e+001
1.006153e+001
1.006075e+001
1.005988e+001
1.005891e+001
1.005786e+001
1.005671e+001
1.005548e+001
1.005416e+001
1.005275e+001
1.005127e+001
1.004971e+001
1.004807e+001
1.004635e+001
1.004457e+001
1.004271e+001
1.004079e+001
1.003881e+001
1.003677e+001
1.003467e+001
1.003251e+001
1.003031e+001
1.002806e+001
1.002577e+001
1.002344e+001
1.002107e+001
1.001867e+001
1.001624e+001
1.001378e+001
1.001130e+001
1.000881e+001
1.000630e+001
1.000379e+001
1.000126e+001
1.000135e+001
1.000404e+001
1.000672e+001
1.000940e+001
1.001206e+001
1.001470e+001
1.001732e+001
1.001991e+001
1.002247e+001
1.002500e+001
1.002749e+001
1.002993e+001
1.003233e+001
1.003468e+001
1.003698e+001
1.003922e+001
1.004140e+001
1.004351e+001
1.004556e+001
1.004754e+001
1.004944e+001
1.005127e+001
1.005302e+001
1.005469e+001
1.005627e+001
1.005777e+001
1.005917e+001
1.006049e+001
1.006171e+001
1.006284e+001
1.006387e+001
1.006480e+001
1.006563e+001
1.006637e+001
1.006699e+001
1.006752e+001
1.006794e+001
1.006826e+001
1.006847e+001
1.006857e+001
1.006857e+001
1.006847e+001
1.006826e+001
1.006794e+001
1.006752e+001
1.006699e+001
1.006637e+001
1.006563e+001
1.006480e+001
1.006387e+001
1.006284e+001
1.006171e+001
1.006049e+001
1.005917e+001
1.005777e+001
1.005627e+001
1.005469e+001
1.005302e+001
1.005127e+001
1.004944e+001
1.004754e+001
1.004556e+001
1.004351e+001
1.004140e+001
1.003922e+001
1.003698e+001
1.003468e+001
1.003233e+001
1.002993e+001
1.002749e+001
1.002500e+001
1.002247e+001
1.001991e+001
1.001732e+001
1.001470e+001
1.001206e+001
1.000940e+001
1.000672e+001
1.000404e+001
1.000135e+001
1.000143e+001
1.000430e+001
1.000715e+001
1.001000e+001
1.001283e+001
1.001564e+001
1.001843e+001
1.002119e+001
1.002391e+001
1.002660e+001
1.002925e+001
1.003185e+001
1.003440e+001
1.003690e+001
1.003935e+001
1.004173e+001
1.004405e+001
1.004630e+001
1.004848e+001
1.005058e+001
1.005261e+001
1.005455e+001
1.005641e+001
1.005819e+001
1.005987e+001
1.006147e+001
1.006296e+001
1.006436e+001
1.006566e+001
1.006686e+001
1.006796e+001
1.006895e+001
1.006984e+001
1.007062e+001
1.007128e+001
1.007184e+001
1.007229e+001
1.007263e+001
1.007285e+001
1.007297e+001
1.007297e+001
1.007285e+001
1.007263e+001
1.007229e+001
1.007184e+001
1.007128e+001
1.007062e+001
1.006984e+001
1.006895e+001
1.006796e+001
1.006686e+001
1.006566e+001
1.006436e+001
1.006296e+001
1.006147e+001
1.005987e+001
1.005819e+001
1.005641e+001
1.005455e+001
1.005261e+001
1.005058e+001
1.004848e+001
1.004630e+001
1.004405e+001
1.004173e+001
1.003935e+001
1.003690e+001
1.003440e+001
1.003185e+001
1.002925e+001
1.002660e+001
1.002391e+001
1.002119e+001
1.001843e+001
1.001564e+001
1.001283e+001
1.001000e+001
1.000715e+001
1.000430e+001
1.000143e+001
1.000152e+001
1.000456e+001
1.000759e+001
1.001062e+001
1.001362e+001
1.001661e+001
1.001956e+001
1.002249e+001
1.002539e+001
1.002824e+001
1.003105e+001
1.003381e+001
1.003653e+001
1.003918e+001
1.004177e+001
1.004430e+001
1.004677e+001
1.004916e+001
1.005147e+001
1.005370e+001
1.005586e+001
1.005792e+001
1.005990e+001
1.006178e+001
1.006357e+001
1.006526e+001
1.006685e+001
1.006834e+001
1.006972e+001
1.007099e+001
1.007215e+001
1.007321e+001
1.007415e+001
1.007497e+001
1.007568e+001
1.007628e+001
1.007675e+001
1.007711e+001
1.007735e+001
1.007747e+001
1.007747e+001
1.007735e+001
1.007711e+001
1.007675e+001
1.007628e+001
1.007568e+001
1.007497e+001
1.007415e+001
1.007321e+001
1.007215e+001
1.007099e+001
1.006972e+001
1.006834e+001
1.006685e+001
1.006526e+001
1.006357e+001
1.006178e+001
1.005990e+001
1.005792e+001
1.005586e+001
1.005370e+001
1.005147e+001
1.004916e+001
1.004677e+001
1.004430e+001
1.004177e+001
1.003918e+001
1.003653e+001
1.003381e+001
1.003105e+001
1.002824e+001
1.002539e+001
1.002249e+001
1.001956e+001
1.001661e+001
1.001362e+001
1.001062e+001
1.000759e+001
1.000456e+001
1.000152e+001
1.000161e+001
1.000483e+001
1.000805e+001
1.001125e+001
1.001443e+001
1.001760e+001
1.002073e+001
1.002383e+001
1.002690e+001
1.002993e+001
1.003290e+001
1.003583e+001
1.003871e+001
1.004152e+001
1.004427e+001
1.004695e+001
1.004956e+001
1.005209e+001
1.005454e+001
1.005691e+001
1.005919e+001
1.006138e+001
1.006347e+001
1.006547e+001
1.006736e+001
1.006915e+001
1.007084e+001
1.007241e+001
1.007388e+001
1.007523e+001
1.007646e+001
1.007758e+001
1.007857e+001
1.007945e+001
1.008020e+001
1.008083e+001
1.008133e+001
1.008171e+001
1.008197e+001
1.008209e+001
1.008209e+001
1.008197e+001
1.008171e+001
1.008133e+001
1.008083e+001
1.008020e+001
1.007945e+001
1.007857e+001
1.007758e+001
1.007646e+001
1.007523e+001
1.007388e+001
1.007241e+001
1.007084e+001
1.006915e+001
1.006736e+001
1.006547e+001
1.006347e+001
1.006138e+001
1.005919e+001
1.005691e+001
1.005454e+001
1.005209e+001
1.004956e+001
1.004695e+001
1.004427e+001
1.004152e+001
1.003871e+001
1.003583e+001
1.003290e+001
1.002993e+001
1.002690e+001
1.002383e+001
1.002073e+001
1.001760e+001
1.001443e+001
1.001125e+001
1.000805e+001
1.000483e+001
1.000161e+001
1.000171e+001
1.000511e+001
1.000851e+001
1.001190e+001
1.001527e+001
1.001861e+001
1.002193e+001
1.002521e+001
1.002846e+001
1.003166e+001
1.003481e+001
1.003791e+001
1.004095e+001
1.004392e+001
1.004683e+001
1.004966e+001
1.005242e+001
1.005510e+001
1.005770e+001
1.006020e+001
1.006261e+001
1.006493e+001
1.006714e+001
1.006925e+001
1.007126e+001
1.007315e+001
1.007494e+001
1.007660e+001
1.007815e+001
1.007958e+001
1.008088e+001
1.008206e+001
1.008312e+001
1.008404e+001
1.008484e+001
1.008551e+001
1.008604e+001
1.008644e+001
1.008671e+001
1.008684e+001
1.008684e+001
1.008671e+001
1.008644e+001
1.008604e+001
1.008551e+001
1.008484e+001
1.008404e+001
1.008312e+001
1.008206e+001
1.008088e+001
1.007958e+001
1.007815e+001
1.007660e+001
1.007494e+001
1.007315e+001
1.007126e+001
1.006925e+001
1.006714e+001
1.006493e+001
1.006261e+001
1.006020e+001
1.005770e+001
1.005510e+001
1.005242e+001
1.004966e+001
1.004683e+001
1.004392e+001
1.004095e+001
1.003791e+001
1.003481e+001
1.003166e+001
1.002846e+001
1.002521e+001
1.002193e+001
1.001861e+001
1.001527e+001
1.001190e+001
1.000851e+001
1.000511e+001
1.000171e+001
1.000180e+001
1.000540e+001
1.000899e+001
1.001257e+001
1.001613e+001
1.001966e+001
1.002316e+001
1.002663e+001
1.003006e+001
1.003344e+001
1.003677e+001
1.004004e+001
1.004325e+001
1.004639e+001
1.004946e+001
1.005246e+001
1.005537e+001
1.005820e+001
1.006094e+001
1.006359e+001
1.006613e+001
1.006858e+001
1.007092e+001
1.007315e+001
1.007527e+001
1.007727e+001
1.007915e+001
1.008091e+001
1.008255e+001
1.008405e+001
1.008543e+001
1.008668e+001
1.008779e+001
1.008877e+001
1.008961e+001
1.009031e+001
1.009088e+001
1.009130e+001
1.009158e+001
1.009173e+001
1.009173e+001
1.009158e+001
1.009130e+001
1.009088e+001
1.009031e+001
1.008961e+001
1.008877e+001
1.008779e+001
1.008668e+001
1.008543e+001
1.008405e+001
1.008255e+001
1.008091e+001
1.007915e+001
1.007727e+001
1.007527e+001
1.007315e+001
1.007092e+001
1.006858e+001
1.006613e+001
1.006359e+001
1.006094e+001
1.005820e+001
1.005537e+001
1.005246e+001
1.004946e+001
1.004639e+001
1.004325e+001
1.004004e+001
1.003677e+001
1.003344e+001
1.003006e+001
1.002663e+001
1.002316e+001
1.001966e+001
1.001613e+001
1.001257e+001
1.000899e+001
1.000540e+001
1.000180e+001
1.000190e+001
1.000570e+001
1.000949e+001
1.001326e+001
1.001701e+001
1.002074e+001
1.002443e+001
1.002809e+001
1.003170e+001
1.003527e+001
1.003878e+001
1.004223e+001
1.004562e+001
1.004893e+001
1.005217e+001
1.005533e+001
1.005841e+001
1.006139e+001
1.006428e+001
1.006707e+001
1.006976e+001
1.007234e+001
1.007480e+001
1.007716e+001
1.007939e+001
1.008150e+001
1.008349e+001
1.008534e+001
1.008707e+001
1.008866e+001
1.009011e+001
1.009143e+001
1.009260e+001
1.009363e+001
1.009452e+001
1.009526e+001
1.009586e+001
1.009630e+001
1.009660e+001
1.009675e+001
1.009675e+001
1.009660e+001
1.009630e+001
1.009586e+001
1.009526e+001
1.009452e+001
1.009363e+001
1.009260e+001
1.009143e+001
1.009011e+001
1.008866e+001
1.008707e+001
1.008534e+001
1.008349e+001
1.008150e+001
1.007939e+001
1.007716e+001
1.007480e+001
1.007234e+001
1.006976e+001
1.006707e+001
1.006428e+001
1.006139e+001
1.005841e+001
1.005533e+001
1.005217e+001
1.004893e+001
1.004562e+001
1.004223e+001
1.003878e+001
1.003527e+001
1.003170e+001
1.002809e+001
1.002443e+001
1.002074e+001
1.001701e+001
1.001326e+001
1.000949e+001
1.000570e+001
1.000190e+001
1.000200e+001
1.000600e+001
1.000999e+001
1.001397e+001
1.001792e+001
1.002185e+001
1.002574e+001
1.002959e+001
1.003340e+001
1.003716e+001
1.004085e+001
1.004449e+001
1.004806e+001
1.005155e+001
1.005496e+001
1.005829e+001
1.006153e+001
1.006467e+001
1.006772e+001
1.007066e+001
1.007349e+001
1.007620e+001
1.007880e+001
1.008128e+001
1.008364e+001
1.008586e+001
1.008795e+001
1.008991e+001
1.009172e+001
1.009340e+001
1.009493e+001
1.009632e+001
1.009756e+001
1.009864e+001
1.009958e+001
1.010036e+001
1.010098e+001
1.010145e+001
1.010177e+001
1.010193e+001
1.010193e+001
1.010177e+001
1.010145e+001
1.010098e+001
1.010036e+001
1.009958e+001
1.009864e+001
1.009756e+001
1.009632e+001
1.009493e+001
1.009340e+001
1.009172e+001
1.008991e+001
1.008795e+001
1.008586e+001
1.008364e+001
1.008128e+001
1.007880e+001
1.007620e+001
1.007349e+001
1.007066e+001
1.006772e+001
1.006467e+001
1.006153e+001
1.005829e+001
1.005496e+001
1.005155e+001
1.004806e+001
1.004449e+001
1.004085e+001
1.003716e+001
1.003340e+001
1.002959e+001
1.002574e+001
1.002185e+001
1.001792e+001
1.001397e+001
1.000999e+001
1.000600e+001
1.000200e+001
1.000211e+001
1.000632e+001
1.001052e+001
1.001470e+001
1.001886e+001
1.002299e+001
1.002709e+001
1.003114e+001
1.003515e+001
1.003910e+001
1.004299e+001
1.004682e+001
1.005057e+001
1.005425e+001
1.005784e+001
1.006134e+001
1.006475e+001
1.006806e+001
1.007126e+001
1.007435e+001
1.007733e+001
1.008019e+001
1.008293e+001
1.008553e+001
1.008801e+001
1.009035e+001
1.009255e+001
1.009461e+001
1.009652e+001
1.009829e+001
1.009990e+001
1.010136e+001
1.010266e+001
1.010380e+001
1.010479e+001
1.010561e+001
1.010627e+001
1.010676e+001
1.010709e+001
1.010726e+001
1.010726e+001
1.010709e+001
1.010676e+001
1.010627e+001
1.010561e+001
1.010479e+001