# vtk DataFile Version 3.0
steady_diffusion_2D
ASCII
DATASET STRUCTURED_POINTS
DIMENSIONS 80 80 1
ORIGIN 0.0 0.0 0.0
SPACING 0.0125 0.0125 1.0
POINT_DATA 6400
SCALARS Temperature double 1
LOOKUP_TABLE default
1.000003e+001
1.000009e+001
1.000015e+001
1.000021e+001
1.000027e+001
1.000033e+001
1.000039e+001
1.000045e+001
1.000051e+001
1.000057e+001
1.000062e+001
1.000068e+001
1.000073e+001
1.000079e+001
1.000084e+001
1.000089e+001
1.000094e+001
1.000099e+001
1.000103e+001
1.000108e+001
1.000112e+001
1.000116e+001
1.000120e+001
1.000124e+001
1.000128e+001
1.000131e+001
1.000134e+001
1.000137e+001
1.000140e+001
1.000142e+001
1.000145e+001
1.000147e+001
1.000149e+001
1.000150e+001
1.000152e+001
1.000153e+001
1.000154e+001
1.000155e+001
1.000155e+001
1.000155e+001
1.000155e+001
1.000155e+001
1.000155e+001
1.000154e+001
1.000153e+001
1.000152e+001
1.000150e+001
1.000149e+001
1.000147e+001
1.000145e+001
1.000142e+001
1.000140e+001
1.000137e+001
1.000134e+001
1.000131e+001
1.000128e+001
1.000124e+001
1.000120e+001
1.000116e+001
1.000112e+001
1.000108e+001
1.000103e+001
1.000099e+001
1.000094e+001
1.000089e+001
1.000084e+001
1.000079e+001
1.000073e+001
1.000068e+001
1.000062e+001
1.000057e+001
1.000051e+001
1.000045e+001
1.000039e+001
1.000033e+001
1.000027e+001
1.000021e+001
1.000015e+001
1.000009e+001
1.000003e+001
1.000009e+001
1.000027e+001
1.000046e+001
1.000064e+001
1.000082e+001
1.000100e+001
1.000118e+001
1.000136e+001
1.000153e+001
1.000170e+001
1.000187e+001
1.000204e+001
1.000220e+001
1.000236e+001
1.000252e+001
1.000267e+001
1.000282e+001
1.000296e+001
1.000310e+001
1.000324e+001
1.000337e+001
1.000349e+001
1.000361e+001
1.000372e+001
1.000383e+001
1.000393e+001
1.000403e+001
1.000412e+001
1.000420e+001
1.000428e+001
1.000435e+001
1.000441e+001
1.000447e+001
1.000452e+001
1.000456e+001
1.000460e+001
1.000462e+001
1.000465e+001
1.000466e+001
1.000467e+001
1.000467e+001
1.000466e+001
1.000465e+001
1.000462e+001
1.000460e+001
1.000456e+001
1.000452e+001
1.000447e+001
1.000441e+001
1.000435e+001
1.000428e+001
1.000420e+001
1.000412e+001
1.000403e+001
1.000393e+001
1.000383e+001
1.000372e+001
1.000361e+001
1.000349e+001
1.000337e+001
1.000324e+001
1.000310e+001
1.000296e+001
1.000282e+001
1.000267e+001
1.000252e+001
1.000236e+001
1.000220e+001
1.000204e+001
1.000187e+001
1.000170e+001
1.000153e+001
1.000136e+001
1.000118e+001
1.000100e+001
1.000082e+001
1.000064e+001
1.000046e+001
1.000027e+001
1.000009e+001
1.000015e+001
1.000046e+001
1.000076e+001
1.000107e+001
1.000137e+001
1.000167e+001
1.000197e+001
1.000226e+001
1.000255e+001
1.000284e+001
1.000312e+001
1.000340e+001
1.000367e+001
1.000394e+001
1.000420e+001
1.000445e+001
1.000470e+001
1.000494e+001
1.000518e+001
1.000540e+001
1.000562e+001
1.000582e+001
1.000602e+001
1.000621e+001
1.000639e+001
1.000656e+001
1.000672e+001
1.000687e+001
1.000701e+001
1.000714e+001
1.000725e+001
1.000736e+001
1.000746e+001
1.000754e+001
1.000761e+001
1.000767e+001
1.000772e+001
1.000775e+001
1.000778e+001
1.000779e+001
1.000779e+001
1.000778e+001
1.000775e+001
1.000772e+001
1.000767e+001
1.000761e+001
1.000754e+001
1.000746e+001
1.000736e+001
1.000725e+001
1.000714e+001
1.000701e+001
1.000687e+001
1.000672e+001
1.000656e+001
1.000639e+001
1.000621e+001
1.000602e+001
1.000582e+001
1.000562e+001
1.000540e+001
1.000518e+001
1.000494e+001
1.000470e+001
1.000445e+001
1.000420e+001
1.000394e+001
1.000367e+001
1.000340e+001
1.000312e+001
1.000284e+001
1.000255e+001
1.000226e+001
1.000197e+001
1.000167e+001
1.000137e+001
1.000107e+001
1.000076e+001
1.000046e+001
1.000015e+001
1.000021e+001
1.000064e+001
1.000107e+001
1.000150e+001
1.000192e+001
1.000234e+001
1.000276e+001
1.000317e+001
1.000358e+001
1.000398e+001
1.000438e+001
1.000477e+001
1.000515e+001
1.000553e+001
1.000589e+001
1.000625e+001
1.000660e+001
1.000693e+001
1.000726e+001
1.000757e+001
1.000788e+001
1.000817e+001
1.000845e+001
1.000871e+001
1.000896e+001
1.000920e+001
1.000943e+001
1.000964e+001
1.000983e+001
1.001001e+001
1.001018e+001
1.001032e+001
1.001046e+001
1.001057e+001
1.001067e+001
1.001076e+001
1.001082e+001
1.001087e+001
1.001091e+001
1.001093e+001
1.001093e+001
1.001091e+001
1.001087e+001
1.001082e+001
1.001076e+001
1.001067e+001
1.001057e+001
1.001046e+001
1.001032e+001
1.001018e+001
1.001001e+001
1.000983e+001
1.000964e+001
1.000943e+001
1.000920e+001
1.000896e+001
1.000871e+001
1.000845e+001
1.000817e+001
1.000788e+001
1.000757e+001
1.000726e+001
1.000693e+001
1.000660e+001
1.000625e+001
1.000589e+001
1.000553e+001
1.000515e+001
1.000477e+001
1.000438e+001
1.000398e+001
1.000358e+001
1.000317e+001
1.000276e+001
1.000234e+001
1.000192e+001
1.000150e+001
1.000107e+001
1.000064e+001
1.000021e+001
1.000028e+001
1.000083e+001
1.000138e+001
1.000193e+001
1.000248e+001
1.000302e+001
1.000356e+001
1.000409e+001
1.000461e+001
1.000513e+001
1.000564e+001
1.000615e+001
1.000664e+001
1.000712e+001
1.000759e+001
1.000805e+001
1.000850e+001
1.000893e+001
1.000936e+001
1.000976e+001
1.001015e+001
1.001053e+001
1.001089e+001
1.001123e+001
1.001155e+001
1.001186e+001
1.001215e+001
1.001242e+001
1.001267e+001
1.001290e+001
1.001311e+001
1.001331e+001
1.001348e+001
1.001363e+001
1.001376e+001
1.001386e+001
1.001395e+001
1.001402e+001
1.001406e+001
1.001408e+001
1.001408e+001
1.001406e+001
1.001402e+001
1.001395e+001
1.001386e+001
1.001376e+001
1.001363e+001
1.001348e+001
1.001331e+001
1.001311e+001
1.001290e+001
1.001267e+001
1.001242e+001
1.001215e+001
1.001186e+001
1.001155e+001
1.001123e+001
1.001089e+001
1.001053e+001
1.001015e+001
1.000976e+001
1.000936e+001
1.000893e+001
1.000850e+001
1.000805e+001
1.000759e+001
1.000712e+001
1.000664e+001
1.000615e+001
1.000564e+001
1.000513e+001
1.000461e+001
1.000409e+001
1.000356e+001
1.000302e+001
1.000248e+001
1.000193e+001
1.000138e+001
1.000083e+001
1.000028e+001
1.000034e+001
1.000102e+001
1.000169e+001
1.000237e+001
1.000304e+001
1.000370e+001
1.000436e+001
1.000501e+001
1.000566e+001
1.000629e+001
1.000692e+001
1.000753e+001
1.000814e+001
1.000873e+001
1.000931e+001
1.000987e+001
1.001042e+001
1.001095e+001
1.001147e+001
1.001197e+001
1.001245e+001
1.001291e+001
1.001335e+001
1.001377e+001
1.001416e+001
1.001454e+001
1.001490e+001
1.001523e+001
1.001553e+001
1.001582e+001
1.001608e+001
1.001631e+001
1.001652e+001
1.001671e+001
1.001686e+001
1.001700e+001
1.001710e+001
1.001718e+001
1.001724e+001
1.001726e+001
1.001726e+001
1.001724e+001
1.001718e+001
1.001710e+001
1.001700e+001
1.001686e+001
1.001671e+001
1.001652e+001
1.001631e+001
1.001608e+001
1.001582e+001
1.001553e+001
1.001523e+001
1.001490e+001
1.001454e+001
1.001416e+001
1.001377e+001
1.001335e+001
1.001291e+001
1.001245e+001
1.001197e+001
1.001147e+001
1.001095e+001
1.001042e+001
1.000987e+001
1.000931e+001
1.000873e+001
1.000814e+001
1.000753e+001
1.000692e+001
1.000629e+001
1.000566e+001
1.000501e+001
1.000436e+001
1.000370e+001
1.000304e+001
1.000237e+001
1.000169e+001
1.000102e+001
1.000034e+001
1.000040e+001
1.000121e+001
1.000201e+001
1.000281e+001
1.000360e+001
1.000439e+001
1.000517e+001
1.000594e+001
1.000671e+001
1.000746e+001
1.000821e+001
1.000894e+001
1.000965e+001
1.001036e+001
1.001104e+001
1.001171e+001
1.001236e+001
1.001299e+001
1.001360e+001
1.001419e+001
1.001476e+001
1.001531e+001
1.001583e+001
1.001633e+001
1.001680e+001
1.001725e+001
1.001767e+001
1.001806e+001
1.001843e+001
1.001876e+001
1.001907e+001
1.001935e+001
1.001960e+001
1.001982e+001
1.002000e+001
1.002016e+001
1.002029e+001
1.002038e+001
1.002044e+001
1.002048e+001
1.002048e+001
1.002044e+001
1.002038e+001
1.002029e+001
1.002016e+001
1.002000e+001
1.001982e+001
1.001960e+001
1.001935e+001
1.001907e+001
1.001876e+001
1.001843e+001
1.001806e+001
1.001767e+001
1.001725e+001
1.001680e+001
1.001633e+001
1.001583e+001
1.001531e+001
1.001476e+001
1.001419e+001
1.001360e+001
1.001299e+001
1.001236e+001
1.001171e+001
1.001104e+001
1.001036e+001
1.000965e+001
1.000894e+001
1.000821e+001
1.000746e+001
1.000671e+001
1.000594e+001
1.000517e+001
1.000439e+001
1.000360e+001
1.000281e+001
1.000201e+001
1.000121e+001
1.000040e+001
1.000047e+001
1.000140e+001
1.000233e+001
1.000325e+001
1.000417e+001
1.000509e+001
1.000599e+001
1.000689e+001
1.000777e+001
1.000865e+001
1.000951e+001
1.001036e+001
1.001119e+001
1.001200e+001
1.001279e+001
1.001357e+001
1.001432e+001
1.001505e+001
1.001576e+001
1.001645e+001
1.001711e+001
1.001774e+001
1.001834e+001
1.001892e+001
1.001947e+001
1.001999e+001
1.002047e+001
1.002093e+001
1.002135e+001
1.002174e+001
1.002210e+001
1.002242e+001
1.002271e+001
1.002296e+001
1.002318e+001
1.002336e+001
1.002351e+001
1.002362e+001
1.002369e+001
1.002373e+001
1.002373e+001
1.002369e+001
1.002362e+001
1.002351e+001
1.002336e+001
1.002318e+001
1.002296e+001
1.002271e+001
1.002242e+001
1.002210e+001
1.002174e+001
1.002135e+001
1.002093e+001
1.002047e+001
1.001999e+001
1.001947e+001
1.001892e+001
1.001834e+001
1.001774e+001
1.001711e+001
1.001645e+001
1.001576e+001
1.001505e+001
1.001432e+001
1.001357e+001
1.001279e+001
1.001200e+001
1.001119e+001
1.001036e+001
1.000951e+001
1.000865e+001
1.000777e+001
1.000689e+001
1.000599e+001
1.000509e+001
1.000417e+001
1.000325e+001
1.000233e+001
1.000140e+001
1.000047e+001
1.000053e+001
1.000159e+001
1.000265e+001
1.000370e+001
1.000475e+001
1.000579e+001
1.000682e+001
1.000784e+001
1.000885e+001
1.000985e+001
1.001083e+001
1.001179e+001
1.001274e+001
1.001366e+001
1.001457e+001
1.001545e+001
1.001631e+001
1.001714e+001
1.001795e+001
1.001873e+001
1.001948e+001
1.002020e+001
1.002089e+001
1.002155e+001
1.002217e+001
1.002276e+001
1.002331e+001
1.002383e+001
1.002431e+001
1.002476e+001
1.002517e+001
1.002553e+001
1.002586e+001
1.002615e+001
1.002640e+001
1.002660e+001
1.002677e+001
1.002689e+001
1.002698e+001
1.002702e+001
1.002702e+001
1.002698e+001
1.002689e+001
1.002677e+001
1.002660e+001
1.002640e+001
1.002615e+001
1.002586e+001
1.002553e+001
1.002517e+001
1.002476e+001
1.002431e+001
1.002383e+001
1.002331e+001
1.002276e+001
1.002217e+001
1.002155e+001
1.002089e+001
1.002020e+001
1.001948e+001
1.001873e+001
1.001795e+001
1.001714e+001
1.001631e+001
1.001545e+001
1.001457e+001
1.001366e+001
1.001274e+001
1.001179e+001
1.001083e+001
1.000985e+001
1.000885e+001
1.000784e+001
1.000682e+001
1.000579e+001
1.000475e+001
1.000370e+001
1.000265e+001
1.000159e+001
1.000053e+001
1.000060e+001
1.000179e+001
1.000298e+001
1.000416e+001
1.000534e+001
1.000651e+001
1.000767e+001
1.000882e+001
1.000995e+001
1.001107e+001
1.001217e+001
1.001325e+001
1.001431e+001
1.001536e+001
1.001637e+001
1.001736e+001
1.001833e+001
1.001926e+001
1.002017e+001
1.002105e+001
1.002189e+001
1.002270e+001
1.002347e+001
1.002421e+001
1.002491e+001
1.002558e+001
1.002620e+001
1.002678e+001
1.002732e+001
1.002782e+001
1.002828e+001
1.002869e+001
1.002906e+001
1.002938e+001
1.002966e+001
1.002989e+001
1.003008e+001
1.003022e+001
1.003031e+001
1.003036e+001
1.003036e+001
1.003031e+001
1.003022e+001
1.003008e+001
1.002989e+001
1.002966e+001
1.002938e+001
1.002906e+001
1.002869e+001
1.002828e+001
1.002782e+001
1.002732e+001
1.002678e+001
1.002620e+001
1.002558e+001
1.002491e+001
1.002421e+001
1.002347e+001
1.002270e+001
1.002189e+001
1.002105e+001
1.002017e+001
1.001926e+001
1.001833e+001
1.001736e+001
1.001637e+001
1.001536e+001
1.001431e+001
1.001325e+001
1.001217e+001
1.001107e+001
1.000995e+001
1.000882e+001
1.000767e+001
1.000651e+001
1.000534e+001
1.000416e+001
1.000298e+001
1.000179e+001
1.000060e+001
1.000066e+001
1.000199e+001
1.000331e+001
1.000463e+001
1.000594e+001
1.000724e+001
1.000853e+001
1.000980e+001
1.001106e+001
1.001231e+001
1.001353e+001
1.001474e+001
1.001592e+001
1.001707e+001
1.001820e+001
1.001931e+001
1.002038e+001
1.002142e+001
1.002243e+001
1.002340e+001
1.002434e+001
1.002524e+001
1.002610e+001
1.002692e+001
1.002770e+001
1.002844e+001
1.002913e+001
1.002978e+001
1.003038e+001
1.003094e+001
1.003144e+001
1.003190e+001
1.003231e+001
1.003267e+001
1.003298e+001
1.003324e+001
1.003345e+001
1.003360e+001
1.003371e+001
1.003376e+001
1.003376e+001
1.003371e+001
1.003360e+001
1.003345e+001
1.003324e+001
1.003298e+001
1.003267e+001
1.003231e+001
1.003190e+001
1.003144e+001
1.003094e+001
1.003038e+001
1.002978e+001
1.002913e+001
1.002844e+001
1.002770e+001
1.002692e+001
1.002610e+001
1.002524e+001
1.002434e+001
1.002340e+001
1.002243e+001
1.002142e+001
1.002038e+001
1.001931e+001
1.001820e+001
1.001707e+001
1.001592e+001
1.001474e+001
1.001353e+001
1.001231e+001
1.001106e+001
1.000980e+001
1.000853e+001
1.000724e+001
1.000594e+001
1.000463e+001
1.000331e+001
1.000199e+001
1.000066e+001
1.000073e+001
1.000219e+001
1.000365e+001
1.000510e+001
1.000654e+001
1.000798e+001
1.000940e+001
1.001081e+001
1.001220e+001
1.001357e+001
1.001492e+001
1.001625e+001
1.001755e+001
1.001882e+001
1.002007e+001
1.002128e+001
1.002247e+001
1.002362e+001
1.002473e+001
1.002580e+001
1.002683e+001
1.002783e+001
1.002878e+001
1.002968e+001
1.003054e+001
1.003135e+001
1.003212e+001
1.003283e+001
1.003349e+001
1.003411e+001
1.003466e+001
1.003517e+001
1.003562e+001
1.003602e+001
1.003636e+001
1.003665e+001
1.003687e+001
1.003705e+001
1.003716e+001
1.003722e+001
1.003722e+001
1.003716e+001
1.003705e+001
1.003687e+001
1.003665e+001
1.003636e+001
1.003602e+001
1.003562e+001
1.003517e+001
1.003466e+001
1.003411e+001
1.003349e+001
1.003283e+001
1.003212e+001
1.003135e+001
1.003054e+001
1.002968e+001
1.002878e+001
1.002783e+001
1.002683e+001
1.002580e+001
1.002473e+001
1.002362e+001
1.002247e+001
1.002128e+001
1.002007e+001
1.001882e+001
1.001755e+001
1.001625e+001
1.001492e+001
1.001357e+001
1.001220e+001
1.001081e+001
1.000940e+001
1.000798e+001
1.000654e+001
1.000510e+001
1.000365e+001
1.000219e+001
1.000073e+001
1.000080e+001
1.000240e+001
1.000399e+001
1.000558e+001
1.000716e+001
1.000873e+001
1.001029e+001
1.001183e+001
1.001335e+001
1.001485e+001
1.001633e+001
1.001778e+001
1.001921e+001
1.002061e+001
1.002197e+001
1.002330e+001
1.002460e+001
1.002585e+001
1.002707e+001
1.002824e+001
1.002938e+001
1.003046e+001
1.003150e+001
1.003249e+001
1.003343e+001
1.003432e+001
1.003516e+001
1.003594e+001
1.003667e+001
1.003734e+001
1.003795e+001
1.003850e+001
1.003900e+001
1.003943e+001
1.003981e+001
1.004012e+001
1.004037e+001
1.004056e+001
1.004068e+001
1.004074e+001
1.004074e+001
1.004068e+001
1.004056e+001
1.004037e+001
1.004012e+001
1.003981e+001
1.003943e+001
1.003900e+001
1.003850e+001
1.003795e+001
1.003734e+001
1.003667e+001
1.003594e+001
1.003516e+001
1.003432e+001
1.003343e+001
1.003249e+001
1.003150e+001
1.003046e+001
1.002938e+001
1.002824e+001
1.002707e+001
1.002585e+001
1.002460e+001
1.002330e+001
1.002197e+001
1.002061e+001
1.001921e+001
1.001778e+001
1.001633e+001
1.001485e+001
1.001335e+001
1.001183e+001
1.001029e+001
1.000873e+001
1.000716e+001
1.000558e+001
1.000399e+001
1.000240e+001
1.000080e+001
1.000087e+001
1.000261e+001
1.000435e+001
1.000608e+001
1.000780e+001
1.000951e+001
1.001120e+001
1.001287e+001
1.001453e+001
1.001617e+001
1.001777e+001
1.001936e+001
1.002091e+001
1.002243e+001
1.002391e+001
1.002536e+001
1.002677e+001
1.002814e+001
1.002946e+001
1.003074e+001
1.003197e+001
1.003315e+001
1.003428e+001
1.003536e+001
1.003639e+001
1.003735e+001
1.003826e+001
1.003912e+001
1.003991e+001
1.004064e+001
1.004130e+001
1.004190e+001
1.004244e+001
1.004292e+001
1.004332e+001
1.004366e+001
1.004393e+001
1.004414e+001
1.004428e+001
1.004434e+001
1.004434e+001
1.004428e+001
1.004414e+001
1.004393e+001
1.004366e+001
1.004332e+001
1.004292e+001
1.004244e+001
1.004190e+001
1.004130e+001
1.004064e+001
1.003991e+001
1.003912e+001
1.003826e+001
1.003735e+001
1.003639e+001
1.003536e+001
1.003428e+001
1.003315e+001
1.003197e+001
1.003074e+001
1.002946e+001
1.002814e+001
1.002677e+001
1.002536e+001
1.002391e+001
1.002243e+001
1.002091e+001
1.001936e+001
1.001777e+001
1.001617e+001
1.001453e+001
1.001287e+001
1.001120e+001
1.000951e+001
1.000780e+001
1.000608e+001
1.000435e+001
1.000261e+001
1.000087e+001
1.000094e+001
1.000283e+001
1.000471e+001
1.000658e+001
1.000844e+001
1.001029e+001
1.001213e+001
1.001394e+001
1.001574e+001
1.001751e+001
1.001925e+001
1.002096e+001
1.002264e+001
1.002429e+001
1.002590e+001
1.002746e+001
1.002899e+001
1.003047e+001
1.003191e+001
1.003329e+001
1.003462e+001
1.003590e+001
1.003713e+001
1.003830e+001
1.003941e+001
1.004045e+001
1.004144e+001
1.004236e+001
1.004322e+001
1.004401e+001
1.004473e+001
1.004538e+001
1.004596e+001
1.004648e+001
1.004692e+001
1.004728e+001
1.004758e+001
1.004780e+001
1.004795e+001
1.004802e+001
1.004802e+001
1.004795e+001
1.004780e+001
1.004758e+001
1.004728e+001
1.004692e+001
1.004648e+001
1.004596e+001
1.004538e+001
1.004473e+001
1.004401e+001
1.004322e+001
1.004236e+001
1.004144e+001
1.004045e+001
1.003941e+001
1.003830e+001
1.003713e+001
1.003590e+001
1.003462e+001
1.003329e+001
1.003191e+001
1.003047e+001
1.002899e+001
1.002746e+001
1.002590e+001
1.002429e+001
1.002264e+001
1.002096e+001
1.001925e+001
1.001751e+001
1.001574e+001
1.001394e+001
1.001213e+001
1.001029e+001
1.000844e+001
1.000658e+001
1.000471e+001
1.000283e+001
1.000094e+001
1.000102e+001
1.000305e+001
1.000508e+001
1.000710e+001
1.000911e+001
1.001110e+001
1.001308e+001
1.001504e+001
1.001697e+001
1.001888e+001
1.002076e+001
1.002261e+001
1.002442e+001
1.002619e+001
1.002793e+001
1.002962e+001
1.003126e+001
1.003286e+001
1.003441e+001
1.003590e+001
1.003734e+001
1.003872e+001
1.004004e+001
1.004130e+001
1.004250e+001
1.004363e+001
1.004469e+001
1.004568e+001
1.004661e+001
1.004746e+001
1.004824e+001
1.004894e+001
1.004957e+001
1.005012e+001
1.005060e+001
1.005099e+001
1.005131e+001
1.005155e+001
1.005171e+001
1.005179e+001
1.005179e+001
1.005171e+001
1.005155e+001
1.005131e+001
1.005099e+001
1.005060e+001
1.005012e+001
1.004957e+001
1.004894e+001
1.004824e+001
1.004746e+001
1.004661e+001
1.004568e+001
1.004469e+001
1.004363e+001
1.004250e+001
1.004130e+001
1.004004e+001
1.003872e+001
1.003734e+001
1.003590e+001
1.003441e+001
1.003286e+001
1.003126e+001
1.002962e+001
1.002793e+001
1.002619e+001
1.002442e+001
1.002261e+001
1.002076e+001
1.001888e+001
1.001697e+001
1.001504e+001
1.001308e+001
1.001110e+001
1.000911e+001
1.000710e+001
1.000508e+001
1.000305e+001
1.000102e+001
1.000109e+001
1.000328e+001
1.000546e+001
1.000763e+001
1.000978e+001
1.001193e+001
1.001405e+001
1.001616e+001
1.001824e+001
1.002029e+001
1.002231e+001
1.002429e+001
1.002624e+001
1.002814e+001
1.003001e+001
1.003183e+001
1.003359e+001
1.003531e+001
1.003697e+001
1.003858e+001
1.004012e+001
1.004161e+001
1.004302e+001
1.004438e+001
1.004566e+001
1.004688e+001
1.004802e+001
1.004909e+001
1.005008e+001
1.005099e+001
1.005183e+001
1.005259e+001
1.005326e+001
1.005386e+001
1.005437e+001
1.005479e+001
1.005513e+001
1.005539e+001
1.005556e+001
1.005565e+001
1.005565e+001
1.005556e+001
1.005539e+001
1.005513e+001
1.005479e+001
1.005437e+001
1.005386e+001
1.005326e+001
1.005259e+001
1.005183e+001
1.005099e+001
1.005008e+001
1.004909e+001
1.004802e+001
1.004688e+001
1.004566e+001
1.004438e+001
1.004302e+001
1.004161e+001
1.004012e+001
1.003858e+001
1.003697e+001
1.003531e+001
1.003359e+001
1.003183e+001
1.003001e+001
1.002814e+001
1.002624e+001
1.002429e+001
1.002231e+001
1.002029e+001
1.001824e+001
1.001616e+001
1.001405e+001
1.001193e+001
1.000978e+001
1.000763e+001
1.000546e+001
1.000328e+001
1.000109e+001
1.000117e+001
1.000351e+001
1.000584e+001
1.000817e+001
1.001048e+001
1.001278e+001
1.001505e+001
1.001731e+001
1.001953e+001
1.002173e+001
1.002389e+001
1.002602e+001
1.002810e+001
1.003015e+001
1.003214e+001
1.003409e+001
1.003598e+001
1.003782e+001
1.003960e+001
1.004132e+001
1.004298e+001
1.004457e+001
1.004609e+001
1.004753e+001
1.004891e+001
1.005021e+001
1.005143e+001
1.005258e+001
1.005364e+001
1.005462e+001
1.005552e+001
1.005633e+001
1.005705e+001
1.005769e+001
1.005823e+001
1.005869e+001
1.005906e+001
1.005933e+001
1.005951e+001
1.005961e+001
1.005961e+001
1.005951e+001
1.005933e+001
1.005906e+001
1.005869e+001
1.005823e+001
1.005769e+001
1.005705e+001
1.005633e+001
1.005552e+001
1.005462e+001
1.005364e+001
1.005258e+001
1.005143e+001
1.005021e+001
1.004891e+001
1.004753e+001
1.004609e+001
1.004457e+001
1.004298e+001
1.004132e+001
1.003960e+001
1.003782e+001
1.003598e+001
1.003409e+001
1.003214e+001
1.003015e+001
1.002810e+001
1.002602e+001
1.002389e+001
1.002173e+001
1.001953e+001
1.001731e+001
1.001505e+001
1.001278e+001
1.001048e+001
1.000817e+001
1.000584e+001
1.000351e+001
1.000117e+001
1.000125e+001
1.000375e+001
1.000624e+001
1.000873e+001
1.001120e+001
1.001365e+001
1.001608e+001
1.001849e+001
1.002086e+001
1.002321e+001
1.002552e+001
1.002779e+001
1.003002e+001
1.003220e+001
1.003433e+001
1.003641e+001
1.003844e+001
1.004040e+001
1.004230e+001
1.004414e+001
1.004591e+001
1.004760e+001
1.004923e+001
1.005078e+001
1.005225e+001
1.005364e+001
1.005494e+001
1.005616e+001
1.005730e+001
1.005835e+001
1.005930e+001
1.006017e+001
1.006094e+001
1.006162e+001
1.006220e+001
1.006269e+001
1.006308e+001
1.006338e+001
1.006357e+001
1.006367e+001
1.006367e+001
1.006357e+001
1.006338e+001
1.006308e+001
1.006269e+001
1.006220e+001
1.006162e+001
1.006094e+001
1.006017e+001
1.005930e+001
1.005835e+001
1.005730e+001
1.005616e+001
1.005494e+001
1.005364e+001
1.005225e+001
1.005078e+001
1.004923e+001
1.004760e+001
1.004591e+001
1.004414e+001
1.004230e+001
1.004040e+001
1.003844e+001
1.003641e+001
1.003433e+001
1.003220e+001
1.003002e+001
1.002779e+001
1.002552e+001
1.002321e+001
1.002086e+001
1.001849e+001
1.001608e+001
1.001365e+001
1.001120e+001
1.000873e+001
1.000624e+001
1.000375e+001
1.000125e+001
1.000133e+001
1.000400e+001
1.000665e+001
1.000930e+001
1.001193e+001
1.001454e+001
1.001713e+001
1.001970e+001
1.002223e+001
1.002473e+001
1.002720e+001
1.002962e+001
1.003199e+001
1.003432e+001
1.003659e+001
1.003880e+001
1.004096e+001
1.004305e+001
1.004508e+001
1.004703e+001
1.004892e+001
1.005073e+001
1.005246e+001
1.005411e+001
1.005567e+001
1.005716e+001
1.005855e+001
1.005985e+001
1.006106e+001
1.006217e+001
1.006319e+001
1.006412e+001
1.006494e+001
1.006566e+001
1.006629e+001
1.006681e+001
1.006722e+001
1.006754e+001
1.006774e+001
1.006785e+001
1.006785e+001
1.006774e+001
1.006754e+001
1.006722e+001
1.006681e+001
1.006629e+001
1.006566e+001
1.006494e+001
1.006412e+001
1.006319e+001
1.006217e+001
1.006106e+001
1.005985e+001
1.005855e+001
1.005716e+001
1.005567e+001
1.005411e+001
1.005246e+001
1.005073e+001
1.004892e+001
1.004703e+001
1.004508e+001
1.004305e+001
1.004096e+001
1.003880e+001
1.003659e+001
1.003432e+001
1.003199e+001
1.002962e+001
1.002720e+001
1.002473e+001
1.002223e+001
1.001970e+001
1.001713e+001
1.001454e+001
1.001193e+001
1.000930e+001
1.000665e+001
1.000400e+001
1.000133e+001
1.000142e+001
1.000425e+001
1.000707e+001
1.000989e+001
1.001269e+001
1.001546e+001
1.001822e+001
1.002095e+001
1.002364e+001
1.002630e+001
1.002892e+001
1.003149e+001
1.003402e+001
1.003649e+001
1.003891e+001
1.004126e+001
1.004355e+001
1.004578e+001
1.004793e+001
1.005001e+001
1.005202e+001
1.005394e+001
1.005578e+001
1.005754e+001
1.005920e+001
1.006078e+001
1.006226e+001
1.006364e+001
1.006493e+001
1.006611e+001
1.006720e+001
1.006818e+001
1.006905e+001
1.006982e+001
1.007049e+001
1.007104e+001
1.007148e+001
1.007181e+001
1.007204e+001
1.007215e+001
1.007215e+001
1.007204e+001
1.007181e+001
1.007148e+001
1.007104e+001
1.007049e+001
1.006982e+001
1.006905e+001
1.006818e+001
1.006720e+001
1.006611e+001
1.006493e+001
1.006364e+001
1.006226e+001
1.006078e+001
1.005920e+001
1.005754e+001
1.005578e+001
1.005394e+001
1.005202e+001
1.005001e+001
1.004793e+001
1.004578e+001
1.004355e+001
1.004126e+001
1.003891e+001
1.003649e+001
1.003402e+001
1.003149e+001
1.002892e+001
1.002630e+001
1.002364e+001
1.002095e+001
1.001822e+001
1.001546e+001
1.001269e+001
1.000989e+001
1.000707e+001
1.000425e+001
1.000142e+001
1.000150e+001
1.000451e+001
1.000751e+001
1.001049e+001
1.001346e+001
1.001641e+001
1.001934e+001
1.002223e+001
1.002509e+001
1.002791e+001
1.003069e+001
1.003342e+001
1.003610e+001
1.003873e+001
1.004129e+001
1.004379e+001
1.004623e+001
1.004859e+001
1.005087e+001
1.005308e+001
1.005521e+001
1.005725e+001
1.005920e+001
1.006107e+001
1.006283e+001
1.006450e+001
1.006608e+001
1.006755e+001
1.006891e+001
1.007017e+001
1.007132e+001
1.007236e+001
1.007329e+001
1.007411e+001
1.007481e+001
1.007540e+001
1.007587e+001
1.007622e+001
1.007646e+001
1.007657e+001
1.007657e+001
1.007646e+001
1.007622e+001
1.007587e+001
1.007540e+001
1.007481e+001
1.007411e+001
1.007329e+001
1.007236e+001
1.007132e+001
1.007017e+001
1.006891e+001
1.006755e+001
1.006608e+001
1.006450e+001
1.006283e+001
1.006107e+001
1.005920e+001
1.005725e+001
1.005521e+001
1.005308e+001
1.005087e+001
1.004859e+001
1.004623e+001
1.004379e+001
1.004129e+001
1.003873e+001
1.003610e+001
1.003342e+001
1.003069e+001
1.002791e+001
1.002509e+001
1.002223e+001
1.001934e+001
1.001641e+001
1.001346e+001
1.001049e+001
1.000751e+001
1.000451e+001
1.000150e+001
1.000159e+001
1.000478e+001
1.000795e+001
1.001112e+001
1.001427e+001
1.001739e+001
1.002049e+001
1.002356e+001
1.002659e+001
1.002958e+001
1.003252e+001
1.003542e+001
1.003825e+001
1.004103e+001
1.004375e+001
1.004640e+001
1.004898e+001
1.005148e+001
1.005390e+001
1.005624e+001
1.005850e+001
1.006066e+001
1.006273e+001
1.006470e+001
1.006658e+001
1.006835e+001
1.007001e+001
1.007157e+001
1.007302e+001
1.007435e+001
1.007557e+001
1.007667e+001
1.007766e+001
1.007852e+001
1.007927e+001
1.007989e+001
1.008039e+001
1.008076e+001
1.008101e+001
1.008114e+001
1.008114e+001
1.008101e+001
1.008076e+001
1.008039e+001
1.007989e+001
1.007927e+001
1.007852e+001
1.007766e+001
1.007667e+001
1.007557e+001
1.007435e+001
1.007302e+001
1.007157e+001
1.007001e+001
1.006835e+001
1.006658e+001
1.006470e+001
1.006273e+001
1.006066e+001
1.005850e+001
1.005624e+001
1.005390e+001
1.005148e+001
1.004898e+001
1.004640e+001
1.004375e+001
1.004103e+001
1.003825e+001
1.003542e+001
1.003252e+001
1.002958e+001
1.002659e+001
1.002356e+001
1.002049e+001
1.001739e+001
1.001427e+001
1.001112e+001
1.000795e+001
1.000478e+001
1.000159e+001
1.000169e+001
1.000505e+001
1.000842e+001
1.001176e+001
1.001509e+001
1.001840e+001
1.002168e+001
1.002492e+001
1.002813e+001
1.003129e+001
1.003441e+001
1.003747e+001
1.004047e+001
1.004341e+001
1.004629e+001
1.004909e+001
1.005182e+001
1.005447e+001
1.005703e+001
1.005951e+001
1.006189e+001
1.006418e+001
1.006637e+001
1.006845e+001
1.007044e+001
1.007231e+001
1.007407e+001
1.007572e+001
1.007725e+001
1.007866e+001
1.007995e+001
1.008112e+001
1.008216e+001
1.008307e+001
1.008386e+001
1.008452e+001
1.008505e+001
1.008544e+001
1.008571e+001
1.008584e+001
1.008584e+001
1.008571e+001
1.008544e+001
1.008505e+001
1.008452e+001
1.008386e+001
1.008307e+001
1.008216e+001
1.008112e+001
1.007995e+001
1.007866e+001
1.007725e+001
1.007572e+001
1.007407e+001
1.007231e+001
1.007044e+001
1.006845e+001
1.006637e+001
1.006418e+001
1.006189e+001
1.005951e+001
1.005703e+001
1.005447e+001
1.005182e+001
1.004909e+001
1.004629e+001
1.004341e+001
1.004047e+001
1.003747e+001
1.003441e+001
1.003129e+001
1.002813e+001
1.002492e+001
1.002168e+001
1.001840e+001
1.001509e+001
1.001176e+001
1.000842e+001
1.000505e+001
1.000169e+001
1.000178e+001
1.000534e+001
1.000889e+001
1.001243e+001
1.001595e+001
1.001944e+001
1.002290e+001
1.002633e+001
1.002972e+001
1.003306e+001
1.003635e+001
1.003959e+001
1.004276e+001
1.004587e+001
1.004891e+001
1.005187e+001
1.005475e+001
1.005755e+001
1.006026e+001
1.006287e+001
1.006539e+001
1.006781e+001
1.007012e+001
1.007233e+001
1.007442e+001
1.007640e+001
1.007826e+001
1.008000e+001
1.008162e+001
1.008311e+001
1.008447e+001
1.008570e+001
1.008681e+001
1.008777e+001
1.008860e+001
1.008930e+001
1.008986e+001
1.009027e+001
1.009055e+001
1.009069e+001
1.009069e+001
1.009055e+001
1.009027e+001
1.008986e+001
1.008930e+001
1.008860e+001
1.008777e+001
1.008681e+001
1.008570e+001
1.008447e+001
1.008311e+001
1.008162e+001
1.008000e+001
1.007826e+001
1.007640e+001
1.007442e+001
1.007233e+001
1.007012e+001
1.006781e+001
1.006539e+001
1.006287e+001
1.006026e+001
1.005755e+001
1.005475e+001
1.005187e+001
1.004891e+001
1.004587e+001
1.004276e+001
1.003959e+001
1.003635e+001
1.003306e+001
1.002972e+001
1.002633e+001
1.002290e+001
1.001944e+001
1.001595e+001
1.001243e+001
1.000889e+001
1.000534e+001
1.000178e+001
1.000188e+001
1.000564e+001
1.000938e+001
1.001312e+001
1.001683e+001
1.002051e+001
1.002417e+001
1.002779e+001
1.003136e+001
1.003489e+001
1.003836e+001
1.004178e+001
1.004512e+001
1.004840e+001
1.005161e+001
1.005473e+001
1.005778e+001
1.006073e+001
1.006359e+001
1.006635e+001
1.006900e+001
1.007156e+001
1.007400e+001
1.007632e+001
1.007853e+001
1.008062e+001
1.008259e+001
1.008442e+001
1.008613e+001
1.008770e+001
1.008914e+001
1.009044e+001
1.009160e+001
1.009262e+001
1.009350e+001
1.009423e+001
1.009482e+001
1.009526e+001
1.009556e+001
1.009571e+001
1.009571e+001
1.009556e+001
1.009526e+001
1.009482e+001
1.009423e+001
1.009350e+001
1.009262e+001
1.009160e+001
1.009044e+001
1.008914e+001
1.008770e+001
1.008613e+001
1.008442e+001
1.008259e+001
1.008062e+001
1.007853e+001
1.007632e+001
1.007400e+001
1.007156e+001
1.006900e+001
1.006635e+001
1.006359e+001
1.006073e+001
1.005778e+001
1.005473e+001
1.005161e+001
1.004840e+001
1.004512e+001
1.004178e+001
1.003836e+001
1.003489e+001
1.003136e+001
1.002779e+001
1.002417e+001
1.002051e+001
1.001683e+001
1.001312e+001
1.000938e+001
1.000564e+001
1.000188e+001
1.000198e+001
1.000594e+001
1.000989e+001
1.001383e+001
1.001774e+001
1.002163e+001
1.002548e+001
1.002929e+001
1.003306e+001
1.003678e+001
1.004044e+001
1.004404e+001
1.004757e+001
1.005102e+001
1.005440e+001
1.005770e+001
1.006090e+001
1.006401e+001
1.006703e+001
1.006994e+001
1.007274e+001
1.007543e+001
1.007800e+001
1.008045e+001
1.008278e+001
1.008499e+001
1.008706e+001
1.008899e+001
1.009079e+001
1.009245e+001
1.009397e+001
1.009534e+001
1.009656e+001
1.009764e+001
1.009856e+001
1.009933e+001
1.009995e+001
1.010042e+001
1.010073e+001
1.010089e+001
1.010089e+001
1.010073e+001
1.010042e+001
1.009995e+001
1.009933e+001
1.009856e+001
1.009764e+001