# vtk DataFile Version 3.0
9 points difference shceme(2-order bound)_
ASCII
DATASET STRUCTURED_POINTS
DIMENSIONS 21 21 1
ORIGIN 0.0 0.0 0.0
SPACING 0.05 0.05 1.0
POINT_DATA 441
SCALARS Temperature double 1
LOOKUP_TABLE default
1.000000e+001
1.000000e+001
1.000000e+001
1.000000e+001
1.000000e+001
1.000000e+001
1.000000e+001
1.000000e+001
1.000000e+001
1.000000e+001
1.000000e+001
1.000000e+001
1.000000e+001
1.000000e+001
1.000000e+001
1.000000e+001
1.000000e+001
1.000000e+001
1.000000e+001
1.000000e+001
1.000000e+001
1.000000e+001
1.000214e+001
1.000422e+001
1.000620e+001
1.000803e+001
1.000966e+001
1.001105e+001
1.001217e+001
1.001299e+001
1.001349e+001
1.001366e+001
1.001349e+001
1.001299e+001
1.001217e+001
1.001105e+001
1.000966e+001
1.000803e+001
1.000620e+001
1.000422e+001
1.000214e+001
1.000000e+001
1.000000e+001
1.000433e+001
1.000855e+001
1.001256e+001
1.001626e+001
1.001956e+001
1.002237e+001
1.002464e+001
1.002630e+001
1.002732e+001
1.002766e+001
1.002732e+001
1.002630e+001
1.002464e+001
1.002237e+001
1.001956e+001
1.001626e+001
1.001256e+001
1.000855e+001
1.000433e+001
1.000000e+001
1.000000e+001
1.000662e+001
1.001308e+001
1.001922e+001
1.002489e+001
1.002994e+001
1.003425e+001
1.003772e+001
1.004026e+001
1.004182e+001
1.004234e+001
1.004182e+001
1.004026e+001
1.003772e+001
1.003425e+001
1.002994e+001
1.002489e+001
1.001922e+001
1.001308e+001
1.000662e+001
1.000000e+001
1.000000e+001
1.000908e+001
1.001794e+001
1.002636e+001
1.003413e+001
1.004106e+001
1.004697e+001
1.005174e+001
1.005522e+001
1.005735e+001
1.005806e+001
1.005735e+001
1.005522e+001
1.005174e+001
1.004697e+001
1.004106e+001
1.003413e+001
1.002636e+001
1.001794e+001
1.000908e+001
1.000000e+001
1.000000e+001
1.001177e+001
1.002325e+001
1.003415e+001
1.004422e+001
1.005319e+001
1.006086e+001
1.006703e+001
1.007154e+001
1.007430e+001
1.007523e+001
1.007430e+001
1.007154e+001
1.006703e+001
1.006086e+001
1.005319e+001
1.004422e+001
1.003415e+001
1.002325e+001
1.001177e+001
1.000000e+001
1.000000e+001
1.001475e+001
1.002913e+001
1.004279e+001
1.005540e+001
1.006664e+001
1.007625e+001
1.008398e+001
1.008964e+001
1.009309e+001
1.009425e+001
1.009309e+001
1.008964e+001
1.008398e+001
1.007625e+001
1.006664e+001
1.005540e+001
1.004279e+001
1.002913e+001
1.001475e+001
1.000000e+001
1.000000e+001
1.001809e+001
1.003572e+001
1.005248e+001
1.006795e+001
1.008174e+001
1.009352e+001
1.010300e+001
1.010994e+001
1.011418e+001
1.011560e+001
1.011418e+001
1.010994e+001
1.010300e+001
1.009352e+001
1.008174e+001
1.006795e+001
1.005248e+001
1.003572e+001
1.001809e+001
1.000000e+001
1.000000e+001
1.002187e+001
1.004321e+001
1.006347e+001
1.008218e+001
1.009886e+001
1.011311e+001
1.012457e+001
1.013297e+001
1.013809e+001
1.013981e+001
1.013809e+001
1.013297e+001
1.012457e+001
1.011311e+001
1.009886e+001
1.008218e+001
1.006347e+001
1.004321e+001
1.002187e+001
1.000000e+001
1.000000e+001
1.002620e+001
1.005176e+001
1.007604e+001
1.009844e+001
1.011843e+001
1.013549e+001
1.014923e+001
1.015928e+001
1.016542e+001
1.016748e+001
1.016542e+001
1.015928e+001
1.014923e+001
1.013549e+001
1.011843e+001
1.009844e+001
1.007604e+001
1.005176e+001
1.002620e+001
1.000000e+001
1.000000e+001
1.003118e+001
1.006159e+001
1.009048e+001
1.011714e+001
1.014092e+001
1.016123e+001
1.017757e+001
1.018953e+001
1.019683e+001
1.019929e+001
1.019683e+001
1.018953e+001
1.017757e+001
1.016123e+001
1.014092e+001
1.011714e+001
1.009048e+001
1.006159e+001
1.003118e+001
1.000000e+001
1.000000e+001
1.003693e+001
1.007294e+001
1.010715e+001
1.013873e+001
1.016689e+001
1.019095e+001
1.021030e+001
1.022447e+001
1.023312e+001
1.023602e+001
1.023312e+001
1.022447e+001
1.021030e+001
1.019095e+001
1.016689e+001
1.013873e+001
1.010715e+001
1.007294e+001
1.003693e+001
1.000000e+001
1.000000e+001
1.004359e+001
1.008609e+001
1.012648e+001
1.016376e+001
1.019700e+001
1.022539e+001
1.024823e+001
1.026496e+001
1.027516e+001
1.027859e+001
1.027516e+001
1.026496e+001
1.024823e+001
1.022539e+001
1.019700e+001
1.016376e+001
1.012648e+001
1.008609e+001
1.004359e+001
1.000000e+001
1.000000e+001
1.005132e+001
1.010138e+001
1.014894e+001
1.019283e+001
1.023197e+001
1.026540e+001
1.029230e+001
1.031200e+001
1.032402e+001
1.032805e+001
1.032402e+001
1.031200e+001
1.029230e+001
1.026540e+001
1.023197e+001
1.019283e+001
1.014894e+001
1.010138e+001
1.005132e+001
1.000000e+001
1.000000e+001
1.006033e+001
1.011917e+001
1.017507e+001
1.022667e+001
1.027268e+001
1.031198e+001
1.034359e+001
1.036675e+001
1.038088e+001
1.038562e+001
1.038088e+001
1.036675e+001
1.034359e+001
1.031198e+001
1.027268e+001
1.022667e+001
1.017507e+001
1.011917e+001
1.006033e+001
1.000000e+001
1.000000e+001
1.007083e+001
1.013991e+001
1.020554e+001
1.026611e+001
1.032013e+001
1.036627e+001
1.040338e+001
1.043057e+001
1.044715e+001
1.045273e+001
1.044715e+001
1.043057e+001
1.040338e+001
1.036627e+001
1.032013e+001
1.026611e+001
1.020554e+001
1.013991e+001
1.007083e+001
1.000000e+001
1.000000e+001
1.008308e+001
1.016410e+001
1.024108e+001
1.031213e+001
1.037549e+001
1.042961e+001
1.047315e+001
1.050504e+001
1.052449e+001
1.053103e+001
1.052449e+001
1.050504e+001
1.047315e+001
1.042961e+001
1.037549e+001
1.031213e+001
1.024108e+001
1.016410e+001
1.008308e+001
1.000000e+001
1.000000e+001
1.009738e+001
1.019235e+001
1.028259e+001
1.036587e+001
1.044014e+001
1.050358e+001
1.055461e+001
1.059199e+001
1.061479e+001
1.062245e+001
1.061479e+001
1.059199e+001
1.055461e+001
1.050358e+001
1.044014e+001
1.036587e+001
1.028259e+001
1.019235e+001
1.009738e+001
1.000000e+001
1.000000e+001
1.011409e+001
1.022536e+001
1.033108e+001
1.042866e+001
1.051567e+001
1.058999e+001
1.064979e+001
1.069358e+001
1.072029e+001
1.072927e+001
1.072029e+001
1.069358e+001
1.064979e+001
1.058999e+001
1.051567e+001
1.042866e+001
1.033108e+001
1.022536e+001
1.011409e+001
1.000000e+001
1.000000e+001
1.013362e+001
1.026394e+001
1.038776e+001
1.050204e+001
1.060395e+001
1.069100e+001
1.076103e+001
1.081232e+001
1.084360e+001
1.085412e+001
1.084360e+001
1.081232e+001
1.076103e+001
1.069100e+001
1.060395e+001
1.050204e+001
1.038776e+001
1.026394e+001
1.013362e+001
1.000000e+001
1.000000e+001
1.015643e+001
1.030902e+001
1.045399e+001
1.058779e+001
1.070711e+001
1.080902e+001
1.089101e+001
1.095106e+001
1.098769e+001
1.100000e+001
1.098769e+001
1.095106e+001
1.089101e+001
1.080902e+001
1.070711e+001
1.058779e+001
1.045399e+001
1.030902e+001
1.015643e+001
1.000000e+001
