# vtk DataFile Version 3.0
steady_diffusion_2D_improved
ASCII
DATASET STRUCTURED_POINTS
DIMENSIONS 11 11 1
ORIGIN 0.0 0.0 0.0
SPACING 0.1 0.1 1.0
POINT_DATA 121
SCALARS Temperature double 1
LOOKUP_TABLE default
1.000000e+01
1.000000e+01
1.000000e+01
1.000000e+01
1.000000e+01
1.000000e+01
1.000000e+01
1.000000e+01
1.000000e+01
1.000000e+01
1.000000e+01
1.000000e+01
1.000858e+01
1.001631e+01
1.002245e+01
1.002638e+01
1.002774e+01
1.002638e+01
1.002245e+01
1.001631e+01
1.000858e+01
1.000000e+01
1.000000e+01
1.001800e+01
1.003422e+01
1.004709e+01
1.005535e+01
1.005819e+01
1.005535e+01
1.004709e+01
1.003422e+01
1.001800e+01
1.000000e+01
1.000000e+01
1.002922e+01
1.005553e+01
1.007641e+01
1.008981e+01
1.009443e+01
1.008981e+01
1.007641e+01
1.005553e+01
1.002922e+01
1.000000e+01
1.000000e+01
1.004333e+01
1.008236e+01
1.011333e+01
1.013321e+01
1.014006e+01
1.013321e+01
1.011333e+01
1.008236e+01
1.004333e+01
1.000000e+01
1.000000e+01
1.006176e+01
1.011738e+01
1.016151e+01
1.018985e+01
1.019962e+01
1.018985e+01
1.016151e+01
1.011738e+01
1.006176e+01
1.000000e+01
1.000000e+01
1.008632e+01
1.016407e+01
1.022576e+01
1.026537e+01
1.027902e+01
1.026537e+01
1.022576e+01
1.016407e+01
1.008632e+01
1.000000e+01
1.000000e+01
1.011945e+01
1.022706e+01
1.031246e+01
1.036729e+01
1.038619e+01
1.036729e+01
1.031246e+01
1.022706e+01
1.011945e+01
1.000000e+01
1.000000e+01
1.016443e+01
1.031262e+01
1.043022e+01
1.050574e+01
1.053176e+01
1.050574e+01
1.043022e+01
1.031262e+01
1.016443e+01
1.000000e+01
1.000000e+01
1.022566e+01
1.042919e+01
1.059071e+01
1.069441e+01
1.073014e+01
1.069441e+01
1.059071e+01
1.042919e+01
1.022566e+01
1.000000e+01
1.000000e+01
1.030902e+01
1.058779e+01
1.080902e+01
1.095106e+01
1.100000e+01
1.095106e+01
1.080902e+01
1.058779e+01
1.030902e+01
1.000000e+01
