# vtk DataFile Version 3.0
steady_diffusion_2D_improved
ASCII
DATASET STRUCTURED_POINTS
DIMENSIONS 41 41 1
ORIGIN 0.0 0.0 0.0
SPACING 0.025 0.025 1.0
POINT_DATA 1681
SCALARS Temperature double 1
LOOKUP_TABLE default
8.000000e+00
8.000000e+00
8.000000e+00
8.000000e+00
8.000000e+00
8.000000e+00
8.000000e+00
8.000000e+00
8.000000e+00
8.000000e+00
8.000000e+00
8.000000e+00
8.000000e+00
8.000000e+00
8.000000e+00
8.000000e+00
8.000000e+00
8.000000e+00
8.000000e+00
8.000000e+00
8.000000e+00
8.000000e+00
8.000000e+00
8.000000e+00
8.000000e+00
8.000000e+00
8.000000e+00
8.000000e+00
8.000000e+00
8.000000e+00
8.000000e+00
8.000000e+00
8.000000e+00
8.000000e+00
8.000000e+00
8.000000e+00
8.000000e+00
8.000000e+00
8.000000e+00
8.000000e+00
8.000000e+00
8.000000e+00
3.200000e+00
2.240000e+00
2.048000e+00
2.009600e+00
2.001920e+00
2.000384e+00
2.000077e+00
2.000015e+00
2.000003e+00
2.000001e+00
2.000000e+00
2.000000e+00
2.000000e+00
2.000000e+00
2.000000e+00
2.000000e+00
2.000000e+00
2.000000e+00
2.000000e+00
2.000000e+00
2.000000e+00
2.000000e+00
2.000000e+00
2.000000e+00
2.000000e+00
2.000000e+00
2.000000e+00
2.000000e+00
2.000000e+00
2.000000e+00
2.000000e+00
2.000000e+00
2.000000e+00
2.000000e+00
2.000000e+00
2.000000e+00
2.000000e+00
2.000000e+00
2.000000e+00
8.000000e+00
8.000000e+00
2.240000e+00
7.424000e-01
4.587520e-01
4.100164e-01
4.017631e-01
4.003245e-01
4.000621e-01
4.000122e-01
4.000024e-01
4.000005e-01
4.000001e-01
4.000000e-01
4.000000e-01
4.000000e-01
4.000000e-01
4.000000e-01
4.000000e-01
4.000000e-01
4.000000e-01
4.000000e-01
4.000000e-01
4.000000e-01
4.000000e-01
4.000000e-01
4.000000e-01
4.000000e-01
4.000000e-01
4.000000e-01
4.000000e-01
4.000000e-01
4.000000e-01
4.000000e-01
4.000000e-01
4.000000e-01
4.000000e-01
4.000000e-01
4.000000e-01
4.000000e-01
4.800000e-01
8.000000e+00
8.000000e+00
2.048000e+00
4.587520e-01
1.411209e-01
8.466459e-02
7.519736e-02
7.364401e-02
7.338698e-02
7.334303e-02
7.333516e-02
7.333369e-02
7.333340e-02
7.333335e-02
7.333334e-02
7.333333e-02
7.333333e-02
7.333333e-02
7.333333e-02
7.333333e-02
7.333333e-02
7.333333e-02
7.333333e-02
7.333333e-02
7.333333e-02
7.333333e-02
7.333333e-02
7.333333e-02
7.333333e-02
7.333333e-02
7.333333e-02
7.333333e-02
7.333333e-02
7.333333e-02
7.333333e-02
7.333333e-02
7.333333e-02
7.333333e-02
7.333333e-02
7.333333e-02
1.106667e-01
8.000000e+00
8.000000e+00
2.009600e+00
4.100164e-01
8.466459e-02
2.518979e-02
1.493022e-02
1.322231e-02
1.294342e-02
1.289798e-02
1.289046e-02
1.288917e-02
1.288894e-02
1.288890e-02
1.288889e-02
1.288889e-02
1.288889e-02
1.288889e-02
1.288889e-02
1.288889e-02
1.288889e-02
1.288889e-02
1.288889e-02
1.288889e-02
1.288889e-02
1.288889e-02
1.288889e-02
1.288889e-02
1.288889e-02
1.288889e-02
1.288889e-02
1.288889e-02
1.288889e-02
1.288889e-02
1.288889e-02
1.288889e-02
1.288889e-02
1.288889e-02
1.288889e-02
1.288889e-02
2.471111e-02
8.000000e+00
8.000000e+00
2.001920e+00
4.017631e-01
7.519736e-02
1.493022e-02
4.364965e-03
2.570963e-03
2.273042e-03
2.224299e-03
2.216372e-03
2.215076e-03
2.214860e-03
2.214823e-03
2.214816e-03
2.214815e-03
2.214815e-03
2.214815e-03
2.214815e-03
2.214815e-03
2.214815e-03
2.214815e-03
2.214815e-03
2.214815e-03
2.214815e-03
2.214815e-03
2.214815e-03
2.214815e-03
2.214815e-03
2.214815e-03
2.214815e-03
2.214815e-03
2.214815e-03
2.214815e-03
2.214815e-03
2.214815e-03
2.214815e-03
2.214815e-03
2.214815e-03
2.214815e-03
5.385185e-03
8.000000e+00
8.000000e+00
2.000384e+00
4.003245e-01
7.364401e-02
1.322231e-02
2.570963e-03
7.443492e-04
4.368517e-04
3.858143e-04
3.774357e-04
3.760694e-04
3.758466e-04
3.758100e-04
3.758038e-04
3.758027e-04
3.758025e-04
3.758025e-04
3.758025e-04
3.758025e-04
3.758025e-04
3.758025e-04
3.758025e-04
3.758025e-04
3.758025e-04
3.758025e-04
3.758025e-04
3.758025e-04
3.758025e-04
3.758025e-04
3.758025e-04
3.758025e-04
3.758025e-04
3.758025e-04
3.758025e-04
3.758025e-04
3.758025e-04
3.758025e-04
3.758025e-04
3.758025e-04
1.152198e-03
8.000000e+00
8.000000e+00
2.000077e+00
4.000621e-01
7.338698e-02
1.294342e-02
2.273042e-03
4.368517e-04
1.257756e-04
7.365718e-05
6.500451e-05
6.357932e-05
6.334601e-05
6.330791e-05
6.330166e-05
6.330063e-05
6.330045e-05
6.330042e-05
6.330041e-05
6.330041e-05
6.330041e-05
6.330041e-05
6.330041e-05
6.330041e-05
6.330041e-05
6.330041e-05
6.330041e-05
6.330041e-05
6.330041e-05
6.330041e-05
6.330041e-05
6.330041e-05
6.330041e-05
6.330041e-05
6.330041e-05
6.330041e-05
6.330041e-05
6.330041e-05
6.330041e-05
6.330041e-05
2.430996e-04
8.000000e+00
8.000000e+00
2.000015e+00
4.000122e-01
7.334303e-02
1.289798e-02
2.224299e-03
3.858143e-04
7.365718e-05
2.113868e-05
1.236264e-05
1.090484e-05
1.066406e-05
1.062449e-05
1.061801e-05
1.061695e-05
1.061677e-05
1.061674e-05
1.061674e-05
1.061674e-05
1.061674e-05
1.061674e-05
1.061674e-05
1.061674e-05
1.061674e-05
1.061674e-05
1.061674e-05
1.061674e-05
1.061674e-05
1.061674e-05
1.061674e-05
1.061674e-05
1.061674e-05
1.061674e-05
1.061674e-05
1.061674e-05
1.061674e-05
1.061674e-05
1.061674e-05
1.061674e-05
5.074326e-05
8.000000e+00
8.000000e+00
2.000003e+00
4.000024e-01
7.333516e-02
1.289046e-02
2.216372e-03
3.774357e-04
6.500451e-05
1.236264e-05
3.541274e-06
2.069279e-06
1.824615e-06
1.784113e-06
1.777435e-06
1.776338e-06
1.776158e-06
1.776128e-06
1.776124e-06
1.776123e-06
1.776123e-06
1.776123e-06
1.776123e-06
1.776123e-06
1.776123e-06
1.776123e-06
1.776123e-06
1.776123e-06
1.776123e-06
1.776123e-06
1.776123e-06
1.776123e-06
1.776123e-06
1.776123e-06
1.776123e-06
1.776123e-06
1.776123e-06
1.776123e-06
1.776123e-06
1.776123e-06
1.050388e-05
8.000000e+00
8.000000e+00
2.000001e+00
4.000005e-01
7.333369e-02
1.288917e-02
2.215076e-03
3.760694e-04
6.357932e-05
1.090484e-05
2.069279e-06
5.920965e-07
3.457873e-07
3.048242e-07
2.980314e-07
2.969086e-07
2.967235e-07
2.966931e-07
2.966881e-07
2.966873e-07
2.966871e-07
2.966871e-07
2.966871e-07
2.966871e-07
2.966871e-07
2.966871e-07
2.966871e-07
2.966871e-07
2.966871e-07
2.966871e-07
2.966871e-07
2.966871e-07
2.966871e-07
2.966871e-07
2.966871e-07
2.966871e-07
2.966871e-07
2.966871e-07
2.966871e-07
2.966871e-07
2.160113e-06
8.000000e+00
8.000000e+00
2.000000e+00
4.000001e-01
7.333340e-02
1.288894e-02
2.214860e-03
3.758466e-04
6.334601e-05
1.066406e-05
1.824615e-06
3.457873e-07
9.887950e-08
5.772479e-08
5.087713e-08
4.974011e-08
4.955177e-08
4.952066e-08
4.951553e-08
4.951468e-08
4.951454e-08
4.951452e-08
4.951452e-08
4.951452e-08
4.951452e-08
4.951452e-08
4.951452e-08
4.951452e-08
4.951452e-08
4.951452e-08
4.951452e-08
4.951452e-08
4.951452e-08
4.951452e-08
4.951452e-08
4.951452e-08
4.951452e-08
4.951452e-08
4.951452e-08
4.951452e-08
4.419255e-07
8.000000e+00
8.000000e+00
2.000000e+00
4.000000e-01
7.333335e-02
1.288890e-02
2.214823e-03
3.758100e-04
6.330791e-05
1.062449e-05
1.784113e-06
3.048242e-07
5.772479e-08
1.650060e-08
9.630500e-09
8.486941e-09
8.296872e-09
8.265339e-09
8.260119e-09
8.259256e-09
8.259114e-09
8.259091e-09
8.259087e-09
8.259086e-09
8.259086e-09
8.259086e-09
8.259086e-09
8.259086e-09
8.259086e-09
8.259086e-09
8.259086e-09
8.259086e-09
8.259086e-09
8.259086e-09
8.259086e-09
8.259086e-09
8.259086e-09
8.259086e-09
8.259086e-09
8.259086e-09
9.003691e-08
8.000000e+00
8.000000e+00
2.000000e+00
4.000000e-01
7.333334e-02
1.288889e-02
2.214816e-03
3.758038e-04
6.330166e-05
1.061801e-05
1.777435e-06
2.980314e-07
5.087713e-08
9.630500e-09
2.752290e-09
1.606094e-09
1.415245e-09
1.383501e-09
1.378229e-09
1.377354e-09
1.377210e-09
1.377186e-09
1.377182e-09
1.377181e-09
1.377181e-09
1.377181e-09
1.377181e-09
1.377181e-09
1.377181e-09
1.377181e-09
1.377181e-09
1.377181e-09
1.377181e-09
1.377181e-09
1.377181e-09
1.377181e-09
1.377181e-09
1.377181e-09
1.377181e-09
1.377181e-09
1.828282e-08
8.000000e+00
8.000000e+00
2.000000e+00
4.000000e-01
7.333333e-02
1.288889e-02
2.214815e-03
3.758027e-04
6.330063e-05
1.061695e-05
1.776338e-06
2.969086e-07
4.974011e-08
8.486941e-09
1.606094e-09
4.589485e-10
2.677885e-10
2.359513e-10
2.306530e-10
2.297721e-10
2.296259e-10
2.296016e-10
2.295976e-10
2.295970e-10
2.295969e-10
2.295968e-10
2.295968e-10
2.295968e-10
2.295968e-10
2.295968e-10
2.295968e-10
2.295968e-10
2.295968e-10
2.295968e-10
2.295968e-10
2.295968e-10
2.295968e-10
2.295968e-10
2.295968e-10
2.295968e-10
3.702483e-09
8.000000e+00
8.000000e+00
2.000000e+00
4.000000e-01
7.333333e-02
1.288889e-02
2.214815e-03
3.758025e-04
6.330045e-05
1.061677e-05
1.776158e-06
2.967235e-07
4.955177e-08
8.296872e-09
1.415245e-09
2.677885e-10
7.651654e-11
4.464261e-11
3.933312e-11
3.844916e-11
3.830210e-11
3.827767e-11
3.827361e-11
3.827294e-11
3.827283e-11
3.827281e-11
3.827281e-11
3.827280e-11
3.827280e-11
3.827280e-11
3.827280e-11
3.827280e-11
3.827280e-11
3.827280e-11
3.827280e-11
3.827280e-11
3.827280e-11
3.827280e-11
3.827280e-11
3.827280e-11
7.481512e-10
8.000000e+00
8.000000e+00
2.000000e+00
4.000000e-01
7.333333e-02
1.288889e-02
2.214815e-03
3.758025e-04
6.330042e-05
1.061674e-05
1.776128e-06
2.966931e-07
4.952066e-08
8.265339e-09
1.383501e-09
2.359513e-10
4.464261e-11
1.275548e-11
7.441627e-12
6.556333e-12
6.408900e-12
6.384361e-12
6.380280e-12
6.379602e-12
6.379490e-12
6.379471e-12
6.379468e-12
6.379468e-12
6.379467e-12
6.379467e-12
6.379467e-12
6.379467e-12
6.379467e-12
6.379467e-12
6.379467e-12
6.379467e-12
6.379467e-12
6.379467e-12
6.379467e-12
6.379467e-12
1.509061e-10
8.000000e+00
8.000000e+00
2.000000e+00
4.000000e-01
7.333333e-02
1.288889e-02
2.214815e-03
3.758025e-04
6.330041e-05
1.061674e-05
1.776124e-06
2.966881e-07
4.951553e-08
8.260119e-09
1.378229e-09
2.306530e-10
3.933312e-11
7.441627e-12
2.126211e-12
1.240399e-12
1.092806e-12
1.068222e-12
1.064128e-12
1.063447e-12
1.063334e-12
1.063315e-12
1.063312e-12
1.063311e-12
1.063311e-12
1.063311e-12
1.063311e-12
1.063311e-12
1.063311e-12
1.063311e-12
1.063311e-12
1.063311e-12
1.063311e-12
1.063311e-12
1.063311e-12
1.063311e-12
3.039389e-11
8.000000e+00
8.000000e+00
2.000000e+00
4.000000e-01
7.333333e-02
1.288889e-02
2.214815e-03
3.758025e-04
6.330041e-05
1.061674e-05
1.776123e-06
2.966873e-07
4.951468e-08
8.259256e-09
1.377354e-09
2.297721e-10
3.844916e-11
6.556333e-12
1.240399e-12
3.544013e-13
2.067470e-13
1.821431e-13
1.780442e-13
1.773615e-13
1.772479e-13
1.772290e-13
1.772258e-13
1.772253e-13
1.772252e-13
1.772252e-13
1.772252e-13
1.772252e-13
1.772252e-13
1.772252e-13
1.772252e-13
1.772252e-13
1.772252e-13
1.772252e-13
1.772252e-13
1.772252e-13
6.114223e-12
8.000000e+00
8.000000e+00
2.000000e+00
4.000000e-01
7.333333e-02
1.288889e-02
2.214815e-03
3.758025e-04
6.330041e-05
1.061674e-05
1.776123e-06
2.966871e-07
4.951454e-08
8.259114e-09
1.377210e-09
2.296259e-10
3.830210e-11
6.408900e-12
1.092806e-12
2.067470e-13
5.907054e-14
3.445933e-14
3.035810e-14
2.967477e-14
2.956094e-14
2.954199e-14
2.953883e-14
2.953831e-14
2.953822e-14
2.953820e-14
2.953820e-14
2.953820e-14
2.953820e-14
2.953820e-14
2.953820e-14
2.953820e-14
2.953820e-14
2.953820e-14
2.953820e-14
2.953820e-14
1.228752e-12
8.000000e+00
8.000000e+00
2.000000e+00
4.000000e-01
7.333333e-02
1.288889e-02
2.214815e-03
3.758025e-04
6.330041e-05
1.061674e-05
1.776123e-06
2.966871e-07
4.951452e-08
8.259091e-09
1.377186e-09
2.296016e-10
3.827767e-11
6.384361e-12
1.068222e-12
1.821431e-13
3.445933e-14
9.845498e-15
5.743387e-15
5.059779e-15
4.945870e-15
4.926892e-15
4.923732e-15
4.923205e-15
4.923118e-15
4.923103e-15
4.923101e-15
4.923100e-15
4.923100e-15
4.923100e-15
4.923100e-15
4.923100e-15
4.923100e-15
4.923100e-15
4.923100e-15
4.923100e-15
2.467351e-13
8.000000e+00
8.000000e+00
2.000000e+00
4.000000e-01
7.333333e-02
1.288889e-02
2.214815e-03
3.758025e-04
6.330041e-05
1.061674e-05
1.776123e-06
2.966871e-07
4.951452e-08
8.259087e-09
1.377182e-09
2.295976e-10
3.827361e-11
6.380280e-12
1.064128e-12
1.780442e-13
3.035810e-14
5.743387e-15
1.640963e-15
9.572496e-16
8.433068e-16
8.243193e-16
8.211557e-16
8.206287e-16
8.205409e-16
8.205263e-16
8.205239e-16
8.205234e-16
8.205234e-16
8.205234e-16
8.205234e-16
8.205234e-16
8.205234e-16
8.205234e-16
8.205234e-16
8.205234e-16
4.951112e-14
8.000000e+00
8.000000e+00
2.000000e+00
4.000000e-01
7.333333e-02
1.288889e-02
2.214815e-03
3.758025e-04
6.330041e-05
1.061674e-05
1.776123e-06
2.966871e-07
4.951452e-08
8.259086e-09
1.377181e-09
2.295970e-10
3.827294e-11
6.379602e-12
1.063447e-12
1.773615e-13
2.967477e-14
5.059779e-15
9.572496e-16
2.734990e-16
1.595436e-16
1.405522e-16
1.373874e-16
1.368600e-16
1.367721e-16
1.367575e-16
1.367550e-16
1.367546e-16
1.367546e-16
1.367546e-16
1.367546e-16
1.367546e-16
1.367546e-16
1.367546e-16
1.367546e-16
1.367546e-16
9.929574e-15
8.000000e+00
8.000000e+00
2.000000e+00
4.000000e-01
7.333333e-02
1.288889e-02
2.214815e-03
3.758025e-04
6.330041e-05
1.061674e-05
1.776123e-06
2.966871e-07
4.951452e-08
8.259086e-09
1.377181e-09
2.295969e-10
3.827283e-11
6.379490e-12
1.063334e-12
1.772479e-13
2.956094e-14
4.945870e-15
8.433068e-16
1.595436e-16
4.558377e-17
2.659084e-17
2.342549e-17
2.289797e-17
2.281007e-17
2.279542e-17
2.279298e-17
2.279257e-17
2.279251e-17
2.279250e-17
2.279249e-17
2.279249e-17
2.279249e-17
2.279249e-17
2.279249e-17
2.279249e-17
1.990473e-15
8.000000e+00
8.000000e+00
2.000000e+00
4.000000e-01
7.333333e-02
1.288889e-02
2.214815e-03
3.758025e-04
6.330041e-05
1.061674e-05
1.776123e-06
2.966871e-07
4.951452e-08
8.259086e-09
1.377181e-09
2.295968e-10
3.827281e-11
6.379471e-12
1.063315e-12
1.772290e-13
2.954199e-14
4.926892e-15
8.243193e-16
1.405522e-16
2.659084e-17
7.597365e-18
4.431833e-18
3.904261e-18
3.816338e-18
3.801685e-18
3.799244e-18
3.798837e-18
3.798769e-18
3.798758e-18
3.798756e-18
3.798756e-18
3.798756e-18
3.798756e-18
3.798756e-18
3.798756e-18
3.988544e-16
8.000000e+00
8.000000e+00
2.000000e+00
4.000000e-01
7.333333e-02
1.288889e-02
2.214815e-03
3.758025e-04
6.330041e-05
1.061674e-05
1.776123e-06
2.966871e-07
4.951452e-08
8.259086e-09
1.377181e-09
2.295968e-10
3.827281e-11
6.379468e-12
1.063312e-12
1.772258e-13
2.953883e-14
4.923732e-15
8.211557e-16
1.373874e-16
2.342549e-17
4.431833e-18
1.266236e-18
7.386418e-19
6.507115e-19
6.360571e-19
6.336149e-19
6.332080e-19
6.331402e-19
6.331289e-19
6.331270e-19
6.331267e-19
6.331266e-19
6.331266e-19
6.331266e-19
6.331266e-19
7.989751e-17
8.000000e+00
8.000000e+00
2.000000e+00
4.000000e-01
7.333333e-02
1.288889e-02
2.214815e-03
3.758025e-04
6.330041e-05
1.061674e-05
1.776123e-06
2.966871e-07
4.951452e-08
8.259086e-09
1.377181e-09
2.295968e-10
3.827280e-11
6.379468e-12
1.063311e-12
1.772253e-13
2.953831e-14
4.923205e-15
8.206287e-16
1.368600e-16
2.289797e-17
3.904261e-18
7.386418e-19
2.110402e-19
1.231073e-19
1.084521e-19
1.060096e-19
1.056026e-19
1.055347e-19
1.055234e-19
1.055215e-19
1.055212e-19
1.055212e-19
1.055212e-19
1.055212e-19
1.055212e-19
1.600061e-17
8.000000e+00
8.000000e+00
2.000000e+00
4.000000e-01
7.333333e-02
1.288889e-02
2.214815e-03
3.758025e-04
6.330041e-05
1.061674e-05
1.776123e-06
2.966871e-07
4.951452e-08
8.259086e-09
1.377181e-09
2.295968e-10
3.827280e-11
6.379467e-12
1.063311e-12
1.772252e-13
2.953822e-14
4.923118e-15
8.205409e-16
1.367721e-16
2.281007e-17
3.816338e-18
6.507115e-19
1.231073e-19
3.517348e-20
2.051793e-20
1.807536e-20
1.766828e-20
1.760044e-20
1.758913e-20
1.758724e-20
1.758693e-20
1.758688e-20
1.758687e-20
1.758687e-20
1.758687e-20
3.203639e-18
8.000000e+00
8.000000e+00
2.000000e+00
4.000000e-01
7.333333e-02
1.288889e-02
2.214815e-03
3.758025e-04
6.330041e-05
1.061674e-05
1.776123e-06
2.966871e-07
4.951452e-08
8.259086e-09
1.377181e-09
2.295968e-10
3.827280e-11
6.379467e-12
1.063311e-12
1.772252e-13
2.953820e-14
4.923103e-15
8.205263e-16
1.367575e-16
2.279542e-17
3.801685e-18
6.360571e-19
1.084521e-19
2.051793e-20
5.862260e-21
3.419659e-21
3.012563e-21
2.944714e-21
2.933407e-21
2.931522e-21
2.931208e-21
2.931156e-21
2.931147e-21
2.931146e-21
2.931145e-21
6.413139e-19
8.000000e+00
8.000000e+00
2.000000e+00
4.000000e-01
7.333333e-02
1.288889e-02
2.214815e-03
3.758025e-04
6.330041e-05
1.061674e-05
1.776123e-06
2.966871e-07
4.951452e-08
8.259086e-09
1.377181e-09
2.295968e-10
3.827280e-11
6.379467e-12
1.063311e-12
1.772252e-13
2.953820e-14
4.923101e-15
8.205239e-16
1.367550e-16
2.279298e-17
3.799244e-18
6.336149e-19
1.060096e-19
1.807536e-20
3.419659e-21
9.770449e-22
5.699437e-22
5.020940e-22
4.907858e-22
4.889012e-22
4.885871e-22
4.885347e-22
4.885260e-22
4.885246e-22
4.885243e-22
1.283605e-19
8.000000e+00
8.000000e+00
2.000000e+00
4.000000e-01
7.333333e-02
1.288889e-02
2.214815e-03
3.758025e-04
6.330041e-05
1.061674e-05
1.776123e-06
2.966871e-07
4.951452e-08
8.259086e-09
1.377181e-09
2.295968e-10
3.827280e-11
6.379467e-12
1.063311e-12
1.772252e-13
2.953820e-14
4.923100e-15
8.205234e-16
1.367546e-16
2.279257e-17
3.798837e-18
6.332080e-19
1.056026e-19
1.766828e-20
3.012563e-21
5.699437e-22
1.628410e-22
9.499069e-23
8.368236e-23
8.179765e-23
8.148354e-23
8.143119e-23
8.142247e-23
8.142101e-23
8.142077e-23
2.568838e-20
8.000000e+00
8.000000e+00
2.000000e+00
4.000000e-01
7.333333e-02
1.288889e-02
2.214815e-03
3.758025e-04
6.330041e-05
1.061674e-05
1.776123e-06
2.966871e-07
4.951452e-08
8.259086e-09
1.377181e-09
2.295968e-10
3.827280e-11
6.379467e-12
1.063311e-12
1.772252e-13
2.953820e-14
4.923100e-15
8.205234e-16
1.367546e-16
2.279251e-17
3.798769e-18
6.331402e-19
1.055347e-19
1.760044e-20
2.944714e-21
5.020940e-22
9.499069e-23
2.714019e-23
1.583179e-23
1.394706e-23
1.363294e-23
1.358059e-23
1.357187e-23
1.357041e-23
1.357017e-23
5.140391e-21
8.000000e+00
8.000000e+00
2.000000e+00
4.000000e-01
7.333333e-02
1.288889e-02
2.214815e-03
3.758025e-04
6.330041e-05
1.061674e-05
1.776123e-06
2.966871e-07
4.951452e-08
8.259086e-09
1.377181e-09
2.295968e-10
3.827280e-11
6.379467e-12
1.063311e-12
1.772252e-13
2.953820e-14
4.923100e-15
8.205234e-16
1.367546e-16
2.279250e-17
3.798758e-18
6.331289e-19
1.055234e-19
1.758913e-20
2.933407e-21
4.907858e-22
8.368236e-23
1.583179e-23
4.523367e-24
2.638632e-24
2.324511e-24
2.272157e-24
2.263432e-24
2.261978e-24
2.261735e-24
1.028530e-21
8.000000e+00
8.000000e+00
2.000000e+00
4.000000e-01
7.333333e-02
1.288889e-02
2.214815e-03
3.758025e-04
6.330041e-05
1.061674e-05
1.776123e-06
2.966871e-07
4.951452e-08
8.259086e-09
1.377181e-09
2.295968e-10
3.827280e-11
6.379467e-12
1.063311e-12
1.772252e-13
2.953820e-14
4.923100e-15
8.205234e-16
1.367546e-16
2.279249e-17
3.798756e-18
6.331270e-19
1.055215e-19
1.758724e-20
2.931522e-21
4.889012e-22
8.179765e-23
1.394706e-23
2.638632e-24
7.538948e-25
4.397722e-25
3.874185e-25
3.786929e-25
3.772387e-25
3.769963e-25
2.057815e-22
8.000000e+00
8.000000e+00
2.000000e+00
4.000000e-01
7.333333e-02
1.288889e-02
2.214815e-03
3.758025e-04
6.330041e-05
1.061674e-05
1.776123e-06
2.966871e-07
4.951452e-08
8.259086e-09
1.377181e-09
2.295968e-10
3.827280e-11
6.379467e-12
1.063311e-12
1.772252e-13
2.953820e-14
4.923100e-15
8.205234e-16
1.367546e-16
2.279249e-17
3.798756e-18
6.331267e-19
1.055212e-19
1.758693e-20
2.931208e-21
4.885871e-22
8.148354e-23
1.363294e-23
2.324511e-24
4.397722e-25
1.256492e-25
7.329538e-26
6.456975e-26
6.311549e-26
6.287311e-26
4.116887e-23
8.000000e+00
8.000000e+00
2.000000e+00
4.000000e-01
7.333333e-02
1.288889e-02
2.214815e-03
3.758025e-04
6.330041e-05
1.061674e-05
1.776123e-06
2.966871e-07
4.951452e-08
8.259086e-09
1.377181e-09
2.295968e-10
3.827280e-11
6.379467e-12
1.063311e-12
1.772252e-13
2.953820e-14
4.923100e-15
8.205234e-16
1.367546e-16
2.279249e-17
3.798756e-18
6.331266e-19
1.055212e-19
1.758688e-20
2.931156e-21
4.885347e-22
8.143119e-23
1.358059e-23
2.272157e-24
3.874185e-25
7.329538e-26
2.094153e-26
1.221590e-26
1.076163e-26
1.051925e-26
8.235879e-24
8.000000e+00
8.000000e+00
2.000000e+00
4.000000e-01
7.333333e-02
1.288889e-02
2.214815e-03
3.758025e-04
6.330041e-05
1.061674e-05
1.776123e-06
2.966871e-07
4.951452e-08
8.259086e-09
1.377181e-09
2.295968e-10
3.827280e-11
6.379467e-12
1.063311e-12
1.772252e-13
2.953820e-14
4.923100e-15
8.205234e-16
1.367546e-16
2.279249e-17
3.798756e-18
6.331266e-19
1.055212e-19
1.758687e-20
2.931147e-21
4.885260e-22
8.142247e-23
1.357187e-23
2.263432e-24
3.786929e-25
6.456975e-26
1.221590e-26
3.490256e-27
2.035983e-27
1.793604e-27
1.647534e-24
8.000000e+00
8.000000e+00
2.000000e+00
4.000000e-01
7.333333e-02
1.288889e-02
2.214815e-03
3.758025e-04
6.330041e-05
1.061674e-05
1.776123e-06
2.966871e-07
4.951452e-08
8.259086e-09
1.377181e-09
2.295968e-10
3.827280e-11
6.379467e-12
1.063311e-12
1.772252e-13
2.953820e-14
4.923100e-15
8.205234e-16
1.367546e-16
2.279249e-17
3.798756e-18
6.331266e-19
1.055212e-19
1.758687e-20
2.931146e-21
4.885246e-22
8.142101e-23
1.357041e-23
2.261978e-24
3.772387e-25
6.311549e-26
1.076163e-26
2.035983e-27
5.817094e-28
3.393305e-28
3.295748e-25
8.000000e+00
8.000000e+00
2.000000e+00
4.000000e-01
7.333333e-02
1.288889e-02
2.214815e-03
3.758025e-04
6.330041e-05
1.061674e-05
1.776123e-06
2.966871e-07
4.951452e-08
8.259086e-09
1.377181e-09
2.295968e-10
3.827280e-11
6.379467e-12
1.063311e-12
1.772252e-13
2.953820e-14
4.923100e-15
8.205234e-16
1.367546e-16
2.279249e-17
3.798756e-18
6.331266e-19
1.055212e-19
1.758687e-20
2.931145e-21
4.885243e-22
8.142077e-23
1.357017e-23
2.261735e-24
3.769963e-25
6.287311e-26
1.051925e-26
1.793604e-27
3.393305e-28
9.695158e-29
6.593434e-26
8.000000e+00
8.000000e+00
2.000000e+00
4.800000e-01
1.106667e-01
2.471111e-02
5.385185e-03
1.152198e-03
2.430996e-04
5.074326e-05
1.050388e-05
2.160113e-06
4.419255e-07
9.003691e-08
1.828282e-08
3.702483e-09
7.481512e-10
1.509061e-10
3.039389e-11
6.114223e-12
1.228752e-12
2.467351e-13
4.951112e-14
9.929574e-15
1.990473e-15
3.988544e-16
7.989751e-17
1.600061e-17
3.203639e-18
6.413139e-19
1.283605e-19
2.568838e-20
5.140391e-21
1.028530e-21
2.057815e-22
4.116887e-23
8.235879e-24
1.647534e-24
3.295748e-25
6.593434e-26
2.637374e-26
8.000000e+00
8.000000e+00
8.062767e+00
8.125148e+00
8.186756e+00
8.247214e+00
8.306147e+00
8.363192e+00
8.417999e+00
8.470228e+00
8.519558e+00
8.565685e+00
8.608325e+00
8.647214e+00
8.682112e+00
8.712805e+00
8.739104e+00
8.760845e+00
8.777896e+00
8.790151e+00
8.797534e+00
8.800000e+00
8.797534e+00
8.790151e+00
8.777896e+00
8.760845e+00
8.739104e+00
8.712805e+00
8.682112e+00
8.647214e+00
8.608325e+00
8.565685e+00
8.519558e+00
8.470228e+00
8.417999e+00
8.363192e+00
8.306147e+00
8.247214e+00
8.186756e+00
8.125148e+00
8.062767e+00
8.000000e+00
