# vtk DataFile Version 3.0
steady_diffusion_2D_improved
ASCII
DATASET STRUCTURED_POINTS
DIMENSIONS 81 81 1
ORIGIN 0.0 0.0 0.0
SPACING 0.0125 0.0125 1.0
POINT_DATA 6561
SCALARS Temperature double 1
LOOKUP_TABLE default
1.200000e+01
1.200000e+01
1.200000e+01
1.200000e+01
1.200000e+01
1.200000e+01
1.200000e+01
1.200000e+01
1.200000e+01
1.200000e+01
1.200000e+01
1.200000e+01
1.200000e+01
1.200000e+01
1.200000e+01
1.200000e+01
1.200000e+01
1.200000e+01
1.200000e+01
1.200000e+01
1.200000e+01
1.200000e+01
1.200000e+01
1.200000e+01
1.200000e+01
1.200000e+01
1.200000e+01
1.200000e+01
1.200000e+01
1.200000e+01
1.200000e+01
1.200000e+01
1.200000e+01
1.200000e+01
1.200000e+01
1.200000e+01
1.200000e+01
1.200000e+01
1.200000e+01
1.200000e+01
1.200000e+01
1.200000e+01
1.200000e+01
1.200000e+01
1.200000e+01
1.200000e+01
1.200000e+01
1.200000e+01
1.200000e+01
1.200000e+01
1.200000e+01
1.200000e+01
1.200000e+01
1.200000e+01
1.200000e+01
1.200000e+01
1.200000e+01
1.200000e+01
1.200000e+01
1.200000e+01
1.200000e+01
1.200000e+01
1.200000e+01
1.200000e+01
1.200000e+01
1.200000e+01
1.200000e+01
1.200000e+01
1.200000e+01
1.200000e+01
1.200000e+01
1.200000e+01
1.200000e+01
1.200000e+01
1.200000e+01
1.200000e+01
1.200000e+01
1.200000e+01
1.200000e+01
1.200000e+01
1.200000e+01
1.200000e+01
7.200000e+00
5.760000e+00
5.328000e+00
5.198400e+00
5.159520e+00
5.147856e+00
5.144357e+00
5.143307e+00
5.142992e+00
5.142898e+00
5.142869e+00
5.142861e+00
5.142858e+00
5.142857e+00
5.142857e+00
5.142857e+00
5.142857e+00
5.142857e+00
5.142857e+00
5.142857e+00
5.142857e+00
5.142857e+00
5.142857e+00
5.142857e+00
5.142857e+00
5.142857e+00
5.142857e+00
5.142857e+00
5.142857e+00
5.142857e+00
5.142857e+00
5.142857e+00
5.142857e+00
5.142857e+00
5.142857e+00
5.142857e+00
5.142857e+00
5.142857e+00
5.142857e+00
5.142857e+00
5.142857e+00
5.142857e+00
5.142857e+00
5.142857e+00
5.142857e+00
5.142857e+00
5.142857e+00
5.142857e+00
5.142857e+00
5.142857e+00
5.142857e+00
5.142857e+00
5.142857e+00
5.142857e+00
5.142857e+00
5.142857e+00
5.142857e+00
5.142857e+00
5.142857e+00
5.142857e+00
5.142857e+00
5.142857e+00
5.142857e+00
5.142857e+00
5.142857e+00
5.142857e+00
5.142857e+00
5.142857e+00
5.142857e+00
5.142857e+00
5.142857e+00
5.142857e+00
5.142857e+00
5.142857e+00
5.142857e+00
5.142857e+00
5.142857e+00
5.142857e+00
5.142857e+00
1.200000e+01
1.200000e+01
5.760000e+00
3.206400e+00
2.375808e+00
2.119619e+00
2.041808e+00
2.018300e+00
2.011214e+00
2.009081e+00
2.008439e+00
2.008246e+00
2.008188e+00
2.008171e+00
2.008166e+00
2.008164e+00
2.008163e+00
2.008163e+00
2.008163e+00
2.008163e+00
2.008163e+00
2.008163e+00
2.008163e+00
2.008163e+00
2.008163e+00
2.008163e+00
2.008163e+00
2.008163e+00
2.008163e+00
2.008163e+00
2.008163e+00
2.008163e+00
2.008163e+00
2.008163e+00
2.008163e+00
2.008163e+00
2.008163e+00
2.008163e+00
2.008163e+00
2.008163e+00
2.008163e+00
2.008163e+00
2.008163e+00
2.008163e+00
2.008163e+00
2.008163e+00
2.008163e+00
2.008163e+00
2.008163e+00
2.008163e+00
2.008163e+00
2.008163e+00
2.008163e+00
2.008163e+00
2.008163e+00
2.008163e+00
2.008163e+00
2.008163e+00
2.008163e+00
2.008163e+00
2.008163e+00
2.008163e+00
2.008163e+00
2.008163e+00
2.008163e+00
2.008163e+00
2.008163e+00
2.008163e+00
2.008163e+00
2.008163e+00
2.008163e+00
2.008163e+00
2.008163e+00
2.008163e+00
2.008163e+00
2.008163e+00
2.008163e+00
2.008163e+00
2.008163e+00
2.008163e+00
2.145306e+00
1.200000e+01
1.200000e+01
5.328000e+00
2.375808e+00
1.307397e+00
9.451609e-01
8.264917e-01
7.884731e-01
7.764829e-01
7.727448e-01
7.715893e-01
7.712345e-01
7.711261e-01
7.710931e-01
7.710831e-01
7.710800e-01
7.710791e-01
7.710788e-01
7.710788e-01
7.710787e-01
7.710787e-01
7.710787e-01
7.710787e-01
7.710787e-01
7.710787e-01
7.710787e-01
7.710787e-01
7.710787e-01
7.710787e-01
7.710787e-01
7.710787e-01
7.710787e-01
7.710787e-01
7.710787e-01
7.710787e-01
7.710787e-01
7.710787e-01
7.710787e-01
7.710787e-01
7.710787e-01
7.710787e-01
7.710787e-01
7.710787e-01
7.710787e-01
7.710787e-01
7.710787e-01
7.710787e-01
7.710787e-01
7.710787e-01
7.710787e-01
7.710787e-01
7.710787e-01
7.710787e-01
7.710787e-01
7.710787e-01
7.710787e-01
7.710787e-01
7.710787e-01
7.710787e-01
7.710787e-01
7.710787e-01
7.710787e-01
7.710787e-01
7.710787e-01
7.710787e-01
7.710787e-01
7.710787e-01
7.710787e-01
7.710787e-01
7.710787e-01
7.710787e-01
7.710787e-01
7.710787e-01
7.710787e-01
7.710787e-01
7.710787e-01
7.710787e-01
7.710787e-01
7.710787e-01
7.710787e-01
8.749155e-01
1.200000e+01
1.200000e+01
5.198400e+00
2.119619e+00
9.451609e-01
5.201182e-01
3.711758e-01
3.203193e-01
3.033289e-01
2.977556e-01
2.959550e-01
2.953806e-01
2.951993e-01
2.951425e-01
2.951249e-01
2.951194e-01
2.951178e-01
2.951173e-01
2.951171e-01
2.951171e-01
2.951170e-01
2.951170e-01
2.951170e-01
2.951170e-01
2.951170e-01
2.951170e-01
2.951170e-01
2.951170e-01
2.951170e-01
2.951170e-01
2.951170e-01
2.951170e-01
2.951170e-01
2.951170e-01
2.951170e-01
2.951170e-01
2.951170e-01
2.951170e-01
2.951170e-01
2.951170e-01
2.951170e-01
2.951170e-01
2.951170e-01
2.951170e-01
2.951170e-01
2.951170e-01
2.951170e-01
2.951170e-01
2.951170e-01
2.951170e-01
2.951170e-01
2.951170e-01
2.951170e-01
2.951170e-01
2.951170e-01
2.951170e-01
2.951170e-01
2.951170e-01
2.951170e-01
2.951170e-01
2.951170e-01
2.951170e-01
2.951170e-01
2.951170e-01
2.951170e-01
2.951170e-01
2.951170e-01
2.951170e-01
2.951170e-01
2.951170e-01
2.951170e-01
2.951170e-01
2.951170e-01
2.951170e-01
2.951170e-01
2.951170e-01
2.951170e-01
2.951170e-01
2.951170e-01
2.951170e-01
3.510097e-01
1.200000e+01
1.200000e+01
5.159520e+00
2.041808e+00
8.264917e-01
3.711758e-01
2.044928e-01
1.447469e-01
1.237647e-01
1.165367e-01
1.140903e-01
1.132753e-01
1.130075e-01
1.129206e-01
1.128928e-01
1.128839e-01
1.128811e-01
1.128802e-01
1.128799e-01
1.128799e-01
1.128798e-01
1.128798e-01
1.128798e-01
1.128798e-01
1.128798e-01
1.128798e-01
1.128798e-01
1.128798e-01
1.128798e-01
1.128798e-01
1.128798e-01
1.128798e-01
1.128798e-01
1.128798e-01
1.128798e-01
1.128798e-01
1.128798e-01
1.128798e-01
1.128798e-01
1.128798e-01
1.128798e-01
1.128798e-01
1.128798e-01
1.128798e-01
1.128798e-01
1.128798e-01
1.128798e-01
1.128798e-01
1.128798e-01
1.128798e-01
1.128798e-01
1.128798e-01
1.128798e-01
1.128798e-01
1.128798e-01
1.128798e-01
1.128798e-01
1.128798e-01
1.128798e-01
1.128798e-01
1.128798e-01
1.128798e-01
1.128798e-01
1.128798e-01
1.128798e-01
1.128798e-01
1.128798e-01
1.128798e-01
1.128798e-01
1.128798e-01
1.128798e-01
1.128798e-01
1.128798e-01
1.128798e-01
1.128798e-01
1.128798e-01
1.128798e-01
1.128798e-01
1.128798e-01
1.128798e-01
1.391669e-01
1.200000e+01
1.200000e+01
5.147856e+00
2.018300e+00
7.884731e-01
3.203193e-01
1.447469e-01
7.982525e-02
5.618728e-02
4.772005e-02
4.473645e-02
4.370173e-02
4.334825e-02
4.322916e-02
4.318955e-02
4.317653e-02
4.317229e-02
4.317093e-02
4.317049e-02
4.317035e-02
4.317031e-02
4.317030e-02
4.317029e-02
4.317029e-02
4.317029e-02
4.317029e-02
4.317029e-02
4.317029e-02
4.317029e-02
4.317029e-02
4.317029e-02
4.317029e-02
4.317029e-02
4.317029e-02
4.317029e-02
4.317029e-02
4.317029e-02
4.317029e-02
4.317029e-02
4.317029e-02
4.317029e-02
4.317029e-02
4.317029e-02
4.317029e-02
4.317029e-02
4.317029e-02
4.317029e-02
4.317029e-02
4.317029e-02
4.317029e-02
4.317029e-02
4.317029e-02
4.317029e-02
4.317029e-02
4.317029e-02
4.317029e-02
4.317029e-02
4.317029e-02
4.317029e-02
4.317029e-02
4.317029e-02
4.317029e-02
4.317029e-02
4.317029e-02
4.317029e-02
4.317029e-02
4.317029e-02
4.317029e-02
4.317029e-02
4.317029e-02
4.317029e-02
4.317029e-02
4.317029e-02
4.317029e-02
4.317029e-02
4.317029e-02
4.317029e-02
4.317029e-02
4.317029e-02
4.317029e-02
5.470115e-02
1.200000e+01
1.200000e+01
5.144357e+00
2.011214e+00
7.764829e-01
3.033289e-01
1.237647e-01
5.618728e-02
3.100927e-02
2.173890e-02
1.837012e-02
1.716271e-02
1.673595e-02
1.658717e-02
1.653598e-02
1.651858e-02
1.651274e-02
1.651080e-02
1.651016e-02
1.650995e-02
1.650988e-02
1.650986e-02
1.650986e-02
1.650985e-02
1.650985e-02
1.650985e-02
1.650985e-02
1.650985e-02
1.650985e-02
1.650985e-02
1.650985e-02
1.650985e-02
1.650985e-02
1.650985e-02
1.650985e-02
1.650985e-02
1.650985e-02
1.650985e-02
1.650985e-02
1.650985e-02
1.650985e-02
1.650985e-02
1.650985e-02
1.650985e-02
1.650985e-02
1.650985e-02
1.650985e-02
1.650985e-02
1.650985e-02
1.650985e-02
1.650985e-02
1.650985e-02
1.650985e-02
1.650985e-02
1.650985e-02
1.650985e-02
1.650985e-02
1.650985e-02
1.650985e-02
1.650985e-02
1.650985e-02
1.650985e-02
1.650985e-02
1.650985e-02
1.650985e-02
1.650985e-02
1.650985e-02
1.650985e-02
1.650985e-02
1.650985e-02
1.650985e-02
1.650985e-02
1.650985e-02
1.650985e-02
1.650985e-02
1.650985e-02
1.650985e-02
1.650985e-02
1.650985e-02
1.650985e-02
2.136330e-02
1.200000e+01
1.200000e+01
5.143307e+00
2.009081e+00
7.727448e-01
2.977556e-01
1.165367e-01
4.772005e-02
2.173890e-02
1.200410e-02
8.390243e-03
7.062828e-03
6.580840e-03
6.407923e-03
6.346640e-03
6.325182e-03
6.317756e-03
6.315215e-03
6.314355e-03
6.314066e-03
6.313971e-03
6.313939e-03
6.313929e-03
6.313926e-03
6.313924e-03
6.313924e-03
6.313924e-03
6.313924e-03
6.313924e-03
6.313924e-03
6.313924e-03
6.313924e-03
6.313924e-03
6.313924e-03
6.313924e-03
6.313924e-03
6.313924e-03
6.313924e-03
6.313924e-03
6.313924e-03
6.313924e-03
6.313924e-03
6.313924e-03
6.313924e-03
6.313924e-03
6.313924e-03
6.313924e-03
6.313924e-03
6.313924e-03
6.313924e-03
6.313924e-03
6.313924e-03
6.313924e-03
6.313924e-03
6.313924e-03
6.313924e-03
6.313924e-03
6.313924e-03
6.313924e-03
6.313924e-03
6.313924e-03
6.313924e-03
6.313924e-03
6.313924e-03
6.313924e-03
6.313924e-03
6.313924e-03
6.313924e-03
6.313924e-03
6.313924e-03
6.313924e-03
6.313924e-03
6.313924e-03
6.313924e-03
6.313924e-03
6.313924e-03
6.313924e-03
6.313924e-03
6.313924e-03
6.313924e-03
8.303167e-03
1.200000e+01
1.200000e+01
5.142992e+00
2.008439e+00
7.715893e-01
2.959550e-01
1.140903e-01
4.473645e-02
1.837012e-02
8.390243e-03
4.634950e-03
3.232230e-03
2.712765e-03
2.522232e-03
2.453064e-03
2.428222e-03
2.419397e-03
2.416295e-03
2.415217e-03
2.414846e-03
2.414719e-03
2.414677e-03
2.414662e-03
2.414658e-03
2.414656e-03
2.414655e-03
2.414655e-03
2.414655e-03
2.414655e-03
2.414655e-03
2.414655e-03
2.414655e-03
2.414655e-03
2.414655e-03
2.414655e-03
2.414655e-03
2.414655e-03
2.414655e-03
2.414655e-03
2.414655e-03
2.414655e-03
2.414655e-03
2.414655e-03
2.414655e-03
2.414655e-03
2.414655e-03
2.414655e-03
2.414655e-03
2.414655e-03
2.414655e-03
2.414655e-03
2.414655e-03
2.414655e-03
2.414655e-03
2.414655e-03
2.414655e-03
2.414655e-03
2.414655e-03
2.414655e-03
2.414655e-03
2.414655e-03
2.414655e-03
2.414655e-03
2.414655e-03
2.414655e-03
2.414655e-03
2.414655e-03
2.414655e-03
2.414655e-03
2.414655e-03
2.414655e-03
2.414655e-03
2.414655e-03
2.414655e-03
2.414655e-03
2.414655e-03
2.414655e-03
2.414655e-03
2.414655e-03
2.414655e-03
3.215347e-03
1.200000e+01
1.200000e+01
5.142898e+00
2.008246e+00
7.712345e-01
2.953806e-01
1.132753e-01
4.370173e-02
1.716271e-02
7.062828e-03
3.232230e-03
1.786114e-03
1.243380e-03
1.041115e-03
9.663370e-04
9.389331e-04
9.289838e-04
9.254064e-04
9.241327e-04
9.236836e-04
9.235268e-04
9.234726e-04
9.234540e-04
9.234477e-04
9.234456e-04
9.234449e-04
9.234447e-04
9.234446e-04
9.234446e-04
9.234446e-04
9.234446e-04
9.234445e-04
9.234445e-04
9.234445e-04
9.234445e-04
9.234445e-04
9.234445e-04
9.234445e-04
9.234445e-04
9.234445e-04
9.234445e-04
9.234445e-04
9.234445e-04
9.234445e-04
9.234445e-04
9.234445e-04
9.234445e-04
9.234445e-04
9.234445e-04
9.234445e-04
9.234445e-04
9.234445e-04
9.234445e-04
9.234445e-04
9.234445e-04
9.234445e-04
9.234445e-04
9.234445e-04
9.234445e-04
9.234445e-04
9.234445e-04
9.234445e-04
9.234445e-04
9.234445e-04
9.234445e-04
9.234445e-04
9.234445e-04
9.234445e-04
9.234445e-04
9.234445e-04
9.234445e-04
9.234445e-04
9.234445e-04
9.234445e-04
9.234445e-04
9.234445e-04
9.234445e-04
9.234445e-04
9.234445e-04
9.234445e-04
1.241637e-03
1.200000e+01
1.200000e+01
5.142869e+00
2.008188e+00
7.711261e-01
2.951993e-01
1.130075e-01
4.334825e-02
1.673595e-02
6.580840e-03
2.712765e-03
1.243380e-03
6.872525e-04
4.777654e-04
3.993064e-04
3.701169e-04
3.593381e-04
3.553900e-04
3.539562e-04
3.534400e-04
3.532559e-04
3.531908e-04
3.531680e-04
3.531601e-04
3.531573e-04
3.531564e-04
3.531561e-04
3.531560e-04
3.531559e-04
3.531559e-04
3.531559e-04
3.531559e-04
3.531559e-04
3.531559e-04
3.531559e-04
3.531559e-04
3.531559e-04
3.531559e-04
3.531559e-04
3.531559e-04
3.531559e-04
3.531559e-04
3.531559e-04
3.531559e-04
3.531559e-04
3.531559e-04
3.531559e-04
3.531559e-04
3.531559e-04
3.531559e-04
3.531559e-04
3.531559e-04
3.531559e-04
3.531559e-04
3.531559e-04
3.531559e-04
3.531559e-04
3.531559e-04
3.531559e-04
3.531559e-04
3.531559e-04
3.531559e-04
3.531559e-04
3.531559e-04
3.531559e-04
3.531559e-04
3.531559e-04
3.531559e-04
3.531559e-04
3.531559e-04
3.531559e-04
3.531559e-04
3.531559e-04
3.531559e-04
3.531559e-04
3.531559e-04
3.531559e-04
3.531559e-04
3.531559e-04
3.531559e-04
4.784380e-04
1.200000e+01
1.200000e+01
5.142861e+00
2.008171e+00
7.710931e-01
2.951425e-01
1.129206e-01
4.322916e-02
1.658717e-02
6.407923e-03
2.522232e-03
1.041115e-03
4.777654e-04
2.641252e-04
1.834161e-04
1.530694e-04
1.417224e-04
1.375065e-04
1.359509e-04
1.353813e-04
1.351743e-04
1.350998e-04
1.350731e-04
1.350637e-04
1.350603e-04
1.350592e-04
1.350588e-04
1.350587e-04
1.350586e-04
1.350586e-04
1.350586e-04
1.350586e-04
1.350586e-04
1.350586e-04
1.350586e-04
1.350586e-04
1.350586e-04
1.350586e-04
1.350586e-04
1.350586e-04
1.350586e-04
1.350586e-04
1.350586e-04
1.350586e-04
1.350586e-04
1.350586e-04
1.350586e-04
1.350586e-04
1.350586e-04
1.350586e-04
1.350586e-04
1.350586e-04
1.350586e-04
1.350586e-04
1.350586e-04
1.350586e-04
1.350586e-04
1.350586e-04
1.350586e-04
1.350586e-04
1.350586e-04
1.350586e-04
1.350586e-04
1.350586e-04
1.350586e-04
1.350586e-04
1.350586e-04
1.350586e-04
1.350586e-04
1.350586e-04
1.350586e-04
1.350586e-04
1.350586e-04
1.350586e-04
1.350586e-04
1.350586e-04
1.350586e-04
1.350586e-04
1.350586e-04
1.350586e-04
1.840490e-04
1.200000e+01
1.200000e+01
5.142858e+00
2.008166e+00
7.710831e-01
2.951249e-01
1.128928e-01
4.318955e-02
1.653598e-02
6.346640e-03
2.453064e-03
9.663370e-04
3.993064e-04
1.834161e-04
1.014140e-04
7.036404e-05
5.865262e-05
5.425582e-05
5.261399e-05
5.200458e-05
5.177986e-05
5.169757e-05
5.166766e-05
5.165687e-05
5.165301e-05
5.165164e-05
5.165115e-05
5.165099e-05
5.165093e-05
5.165091e-05
5.165090e-05
5.165090e-05
5.165090e-05
5.165090e-05
5.165090e-05
5.165090e-05
5.165090e-05
5.165090e-05
5.165090e-05
5.165090e-05
5.165090e-05
5.165090e-05
5.165090e-05
5.165090e-05
5.165090e-05
5.165090e-05
5.165090e-05
5.165090e-05
5.165090e-05
5.165090e-05
5.165090e-05
5.165090e-05
5.165090e-05
5.165090e-05
5.165090e-05
5.165090e-05
5.165090e-05
5.165090e-05
5.165090e-05
5.165090e-05
5.165090e-05
5.165090e-05
5.165090e-05
5.165090e-05
5.165090e-05
5.165090e-05
5.165090e-05
5.165090e-05
5.165090e-05
5.165090e-05
5.165090e-05
5.165090e-05
5.165090e-05
5.165090e-05
5.165090e-05
5.165090e-05
5.165090e-05
5.165090e-05
5.165090e-05
5.165090e-05
7.070996e-05
1.200000e+01
1.200000e+01
5.142857e+00
2.008164e+00
7.710800e-01
2.951194e-01
1.128839e-01
4.317653e-02
1.651858e-02
6.325182e-03
2.428222e-03
9.389331e-04
3.701169e-04
1.530694e-04
7.036404e-05
3.891021e-05
2.697838e-05
2.246661e-05
2.076720e-05
2.013001e-05
1.989233e-05
1.980417e-05
1.977168e-05
1.975978e-05
1.975545e-05
1.975389e-05
1.975333e-05
1.975313e-05
1.975306e-05
1.975303e-05
1.975303e-05
1.975302e-05
1.975302e-05
1.975302e-05
1.975302e-05
1.975302e-05
1.975302e-05
1.975302e-05
1.975302e-05
1.975302e-05
1.975302e-05
1.975302e-05
1.975302e-05
1.975302e-05
1.975302e-05
1.975302e-05
1.975302e-05
1.975302e-05
1.975302e-05
1.975302e-05
1.975302e-05
1.975302e-05
1.975302e-05
1.975302e-05
1.975302e-05
1.975302e-05
1.975302e-05
1.975302e-05
1.975302e-05
1.975302e-05
1.975302e-05
1.975302e-05
1.975302e-05
1.975302e-05
1.975302e-05
1.975302e-05
1.975302e-05
1.975302e-05
1.975302e-05
1.975302e-05
1.975302e-05
1.975302e-05
1.975302e-05
1.975302e-05
1.975302e-05
1.975302e-05
1.975302e-05
1.975302e-05
1.975302e-05
1.975302e-05
2.713889e-05
1.200000e+01
1.200000e+01
5.142857e+00
2.008163e+00
7.710791e-01
2.951178e-01
1.128811e-01
4.317229e-02
1.651274e-02
6.317756e-03
2.419397e-03
9.289838e-04
3.593381e-04
1.417224e-04
5.865262e-05
2.697838e-05
1.492006e-05
1.033905e-05
8.603320e-06
7.947794e-06
7.701175e-06
7.608804e-06
7.574377e-06
7.561617e-06
7.556914e-06
7.555192e-06
7.554566e-06
7.554339e-06
7.554258e-06
7.554229e-06
7.554218e-06
7.554215e-06
7.554214e-06
7.554213e-06
7.554213e-06
7.554213e-06
7.554213e-06
7.554213e-06
7.554213e-06
7.554213e-06
7.554213e-06
7.554213e-06
7.554213e-06
7.554213e-06
7.554213e-06
7.554213e-06
7.554213e-06
7.554213e-06
7.554213e-06
7.554213e-06
7.554213e-06
7.554213e-06
7.554213e-06
7.554213e-06
7.554213e-06
7.554213e-06
7.554213e-06
7.554213e-06
7.554213e-06
7.554213e-06
7.554213e-06
7.554213e-06
7.554213e-06
7.554213e-06
7.554213e-06
7.554213e-06
7.554213e-06
7.554213e-06
7.554213e-06
7.554213e-06
7.554213e-06
7.554213e-06
7.554213e-06
7.554213e-06
7.554213e-06
7.554213e-06
7.554213e-06
7.554213e-06
7.554213e-06
7.554213e-06
1.040793e-05
1.200000e+01
1.200000e+01
5.142857e+00
2.008163e+00
7.710788e-01
2.951173e-01
1.128802e-01
4.317093e-02
1.651080e-02
6.315215e-03
2.416295e-03
9.254064e-04
3.553900e-04
1.375065e-04
5.425582e-05
2.246661e-05
1.033905e-05
5.718327e-06
3.960802e-06
3.293784e-06
3.041324e-06
2.946082e-06
2.910287e-06
2.896892e-06
2.891903e-06
2.890055e-06
2.889374e-06
2.889124e-06
2.889034e-06
2.889001e-06
2.888989e-06
2.888985e-06
2.888983e-06
2.888983e-06
2.888983e-06
2.888982e-06
2.888982e-06
2.888982e-06
2.888982e-06
2.888982e-06
2.888982e-06
2.888982e-06
2.888982e-06
2.888982e-06
2.888982e-06
2.888982e-06
2.888982e-06
2.888982e-06
2.888982e-06
2.888982e-06
2.888982e-06
2.888982e-06
2.888982e-06
2.888982e-06
2.888982e-06
2.888982e-06
2.888982e-06
2.888982e-06
2.888982e-06
2.888982e-06
2.888982e-06
2.888982e-06
2.888982e-06
2.888982e-06
2.888982e-06
2.888982e-06
2.888982e-06
2.888982e-06
2.888982e-06
2.888982e-06
2.888982e-06
2.888982e-06
2.888982e-06
2.888982e-06
2.888982e-06
2.888982e-06
2.888982e-06
2.888982e-06
2.888982e-06
2.888982e-06
3.989074e-06
1.200000e+01
1.200000e+01
5.142857e+00
2.008163e+00
7.710788e-01
2.951171e-01
1.128799e-01
4.317049e-02
1.651016e-02
6.314355e-03
2.415217e-03
9.241327e-04
3.539562e-04
1.359509e-04
5.261399e-05
2.076720e-05
8.603320e-06
3.960802e-06
2.190781e-06
1.516889e-06
1.260789e-06
1.163685e-06
1.126968e-06
1.113129e-06
1.107933e-06
1.105990e-06
1.105266e-06
1.104998e-06
1.104900e-06
1.104864e-06
1.104850e-06
1.104846e-06
1.104844e-06
1.104843e-06
1.104843e-06
1.104843e-06
1.104843e-06
1.104843e-06
1.104843e-06
1.104843e-06
1.104843e-06
1.104843e-06
1.104843e-06
1.104843e-06
1.104843e-06
1.104843e-06
1.104843e-06
1.104843e-06
1.104843e-06
1.104843e-06
1.104843e-06
1.104843e-06
1.104843e-06
1.104843e-06
1.104843e-06
1.104843e-06
1.104843e-06
1.104843e-06
1.104843e-06
1.104843e-06
1.104843e-06
1.104843e-06
1.104843e-06
1.104843e-06
1.104843e-06
1.104843e-06
1.104843e-06
1.104843e-06
1.104843e-06
1.104843e-06
1.104843e-06
1.104843e-06
1.104843e-06
1.104843e-06
1.104843e-06
1.104843e-06
1.104843e-06
1.104843e-06
1.104843e-06
1.104843e-06
1.528175e-06
1.200000e+01
1.200000e+01
5.142857e+00
2.008163e+00
7.710787e-01
2.951171e-01
1.128799e-01
4.317035e-02
1.650995e-02
6.314066e-03
2.414846e-03
9.236836e-04
3.534400e-04
1.353813e-04
5.200458e-05
2.013001e-05
7.947794e-06
3.293784e-06
1.516889e-06
8.390574e-07
5.807866e-07
4.825281e-07
4.452172e-07
4.310824e-07
4.257424e-07
4.237315e-07
4.229770e-07
4.226950e-07
4.225901e-07
4.225513e-07
4.225370e-07
4.225317e-07
4.225298e-07
4.225291e-07
4.225289e-07
4.225288e-07
4.225288e-07
4.225287e-07
4.225287e-07
4.225287e-07
4.225287e-07
4.225287e-07
4.225287e-07
4.225287e-07
4.225287e-07
4.225287e-07
4.225287e-07
4.225287e-07
4.225287e-07
4.225287e-07
4.225287e-07
4.225287e-07
4.225287e-07
4.225287e-07
4.225287e-07
4.225287e-07
4.225287e-07
4.225287e-07
4.225287e-07
4.225287e-07
4.225287e-07
4.225287e-07
4.225287e-07
4.225287e-07
4.225287e-07
4.225287e-07
4.225287e-07
4.225287e-07
4.225287e-07
4.225287e-07
4.225287e-07
4.225287e-07
4.225287e-07
4.225287e-07
4.225287e-07
4.225287e-07
4.225287e-07
4.225287e-07
4.225287e-07
4.225287e-07
5.852112e-07
1.200000e+01
1.200000e+01
5.142857e+00
2.008163e+00
7.710787e-01
2.951170e-01
1.128798e-01
4.317031e-02
1.650988e-02
6.313971e-03
2.414719e-03
9.235268e-04
3.532559e-04
1.351743e-04
5.177986e-05
1.989233e-05
7.701175e-06
3.041324e-06
1.260789e-06
5.807866e-07
3.212719e-07
2.223266e-07
1.846492e-07
1.703250e-07
1.648899e-07
1.628326e-07
1.620559e-07
1.617637e-07
1.616541e-07
1.616132e-07
1.615980e-07
1.615923e-07
1.615902e-07
1.615895e-07
1.615892e-07
1.615891e-07
1.615891e-07
1.615891e-07
1.615891e-07
1.615891e-07
1.615891e-07
1.615891e-07
1.615891e-07
1.615891e-07
1.615891e-07
1.615891e-07
1.615891e-07
1.615891e-07
1.615891e-07
1.615891e-07
1.615891e-07
1.615891e-07
1.615891e-07
1.615891e-07
1.615891e-07
1.615891e-07
1.615891e-07
1.615891e-07
1.615891e-07
1.615891e-07
1.615891e-07
1.615891e-07
1.615891e-07
1.615891e-07
1.615891e-07
1.615891e-07
1.615891e-07
1.615891e-07
1.615891e-07
1.615891e-07
1.615891e-07
1.615891e-07
1.615891e-07
1.615891e-07
1.615891e-07
1.615891e-07
1.615891e-07
1.615891e-07
1.615891e-07
1.615891e-07
2.240401e-07
1.200000e+01
1.200000e+01
5.142857e+00
2.008163e+00
7.710787e-01
2.951170e-01
1.128798e-01
4.317030e-02
1.650986e-02
6.313939e-03
2.414677e-03
9.234726e-04
3.531908e-04
1.350998e-04
5.169757e-05
1.980417e-05
7.608804e-06
2.946082e-06
1.163685e-06
4.825281e-07
2.223266e-07
1.229879e-07
8.509299e-08
7.065235e-08
6.515682e-08
6.306893e-08
6.227728e-08
6.197783e-08
6.186487e-08
6.182239e-08
6.180648e-08
6.180053e-08
6.179832e-08
6.179751e-08
6.179720e-08
6.179709e-08
6.179705e-08
6.179704e-08
6.179703e-08
6.179703e-08
6.179703e-08
6.179703e-08
6.179703e-08
6.179703e-08
6.179703e-08
6.179703e-08
6.179703e-08
6.179703e-08
6.179703e-08
6.179703e-08
6.179703e-08
6.179703e-08
6.179703e-08
6.179703e-08
6.179703e-08
6.179703e-08
6.179703e-08
6.179703e-08
6.179703e-08
6.179703e-08
6.179703e-08
6.179703e-08
6.179703e-08
6.179703e-08
6.179703e-08
6.179703e-08
6.179703e-08
6.179703e-08
6.179703e-08
6.179703e-08
6.179703e-08
6.179703e-08
6.179703e-08
6.179703e-08
6.179703e-08
6.179703e-08
6.179703e-08
6.179703e-08
6.179703e-08
6.179703e-08
8.575113e-08
1.200000e+01
1.200000e+01
5.142857e+00
2.008163e+00
7.710787e-01
2.951170e-01
1.128798e-01
4.317029e-02
1.650986e-02
6.313929e-03
2.414662e-03
9.234540e-04
3.531680e-04
1.350731e-04
5.166766e-05
1.977168e-05
7.574377e-06
2.910287e-06
1.126968e-06
4.452172e-07
1.846492e-07
8.509299e-08
4.707354e-08
3.256393e-08
2.703137e-08
2.492417e-08
2.412272e-08
2.381842e-08
2.370312e-08
2.365953e-08
2.364310e-08
2.363693e-08
2.363461e-08
2.363375e-08
2.363343e-08
2.363331e-08
2.363327e-08
2.363325e-08
2.363324e-08
2.363324e-08
2.363324e-08
2.363324e-08
2.363324e-08
2.363324e-08
2.363324e-08
2.363324e-08
2.363324e-08
2.363324e-08
2.363324e-08
2.363324e-08
2.363324e-08
2.363324e-08
2.363324e-08
2.363324e-08
2.363324e-08
2.363324e-08
2.363324e-08
2.363324e-08
2.363324e-08
2.363324e-08
2.363324e-08
2.363324e-08
2.363324e-08
2.363324e-08
2.363324e-08
2.363324e-08
2.363324e-08
2.363324e-08
2.363324e-08
2.363324e-08
2.363324e-08
2.363324e-08
2.363324e-08
2.363324e-08
2.363324e-08
2.363324e-08
2.363324e-08
2.363324e-08
2.363324e-08
2.363324e-08
3.281531e-08
1.200000e+01
1.200000e+01
5.142857e+00
2.008163e+00
7.710787e-01
2.951170e-01
1.128798e-01
4.317029e-02
1.650985e-02
6.313926e-03
2.414658e-03
9.234477e-04
3.531601e-04
1.350637e-04
5.165687e-05
1.975978e-05
7.561617e-06
2.896892e-06
1.113129e-06
4.310824e-07
1.703250e-07
7.065235e-08
3.256393e-08
1.801482e-08
1.246037e-08
1.034137e-08
9.533756e-09
9.226311e-09
9.109444e-09
9.065098e-09
9.048305e-09
9.041961e-09
9.039571e-09
9.038673e-09
9.038337e-09
9.038212e-09
9.038165e-09
9.038148e-09
9.038142e-09
9.038139e-09
9.038139e-09
9.038138e-09
9.038138e-09
9.038138e-09
9.038138e-09
9.038138e-09
9.038138e-09
9.038138e-09
9.038138e-09
9.038138e-09
9.038138e-09
9.038138e-09
9.038138e-09
9.038138e-09
9.038138e-09
9.038138e-09
9.038138e-09
9.038138e-09
9.038138e-09
9.038138e-09
9.038138e-09
9.038138e-09
9.038138e-09
9.038138e-09
9.038138e-09
9.038138e-09
9.038138e-09
9.038138e-09
9.038138e-09
9.038138e-09
9.038138e-09
9.038138e-09
9.038138e-09
9.038138e-09
9.038138e-09
9.038138e-09
9.038138e-09
9.038138e-09
9.038138e-09
9.038138e-09
1.255603e-08
1.200000e+01
1.200000e+01
5.142857e+00
2.008163e+00
7.710787e-01
2.951170e-01
1.128798e-01
4.317029e-02
1.650985e-02
6.313924e-03
2.414656e-03
9.234456e-04
3.531573e-04
1.350603e-04
5.165301e-05
1.975545e-05
7.556914e-06
2.891903e-06
1.107933e-06
4.257424e-07
1.648899e-07
6.515682e-08
2.703137e-08
1.246037e-08
6.893379e-09
4.767431e-09
3.956058e-09
3.646641e-09
3.528764e-09
3.483912e-09
3.466872e-09
3.460410e-09
3.457964e-09
3.457041e-09
3.456693e-09
3.456563e-09
3.456514e-09
3.456496e-09
3.456489e-09
3.456486e-09
3.456485e-09
3.456485e-09
3.456485e-09
3.456485e-09
3.456485e-09
3.456485e-09
3.456485e-09
3.456485e-09
3.456485e-09
3.456485e-09
3.456485e-09
3.456485e-09
3.456485e-09
3.456485e-09
3.456485e-09
3.456485e-09
3.456485e-09
3.456485e-09
3.456485e-09
3.456485e-09
3.456485e-09
3.456485e-09
3.456485e-09
3.456485e-09
3.456485e-09
3.456485e-09
3.456485e-09
3.456485e-09
3.456485e-09
3.456485e-09
3.456485e-09
3.456485e-09
3.456485e-09
3.456485e-09
3.456485e-09
3.456485e-09
3.456485e-09
3.456485e-09
3.456485e-09
3.456485e-09
4.803756e-09
1.200000e+01
1.200000e+01
5.142857e+00
2.008163e+00
7.710787e-01
2.951170e-01
1.128798e-01
4.317029e-02
1.650985e-02
6.313924e-03
2.414655e-03
9.234449e-04
3.531564e-04
1.350592e-04
5.165164e-05
1.975389e-05
7.555192e-06
2.890055e-06
1.105990e-06
4.237315e-07
1.628326e-07
6.306893e-08
2.492417e-08
1.034137e-08
4.767431e-09
2.637501e-09
1.823915e-09
1.513302e-09
1.394794e-09
1.349618e-09
1.332415e-09
1.325872e-09
1.323388e-09
1.322446e-09
1.322090e-09
1.321956e-09
1.321905e-09
1.321886e-09
1.321879e-09
1.321876e-09
1.321875e-09
1.321875e-09
1.321875e-09
1.321875e-09
1.321875e-09
1.321875e-09
1.321875e-09
1.321875e-09
1.321875e-09
1.321875e-09
1.321875e-09
1.321875e-09
1.321875e-09
1.321875e-09
1.321875e-09
1.321875e-09
1.321875e-09
1.321875e-09
1.321875e-09
1.321875e-09
1.321875e-09
1.321875e-09
1.321875e-09
1.321875e-09
1.321875e-09
1.321875e-09
1.321875e-09
1.321875e-09
1.321875e-09
1.321875e-09
1.321875e-09
1.321875e-09
1.321875e-09
1.321875e-09
1.321875e-09
1.321875e-09
1.321875e-09
1.321875e-09
1.321875e-09
1.321875e-09
1.837689e-09
1.200000e+01
1.200000e+01
5.142857e+00
2.008163e+00
7.710787e-01
2.951170e-01
1.128798e-01
4.317029e-02
1.650985e-02
6.313924e-03
2.414655e-03
9.234447e-04
3.531561e-04
1.350588e-04
5.165115e-05
1.975333e-05
7.554566e-06
2.889374e-06
1.105266e-06
4.229770e-07
1.620559e-07
6.227728e-08
2.412272e-08
9.533756e-09
3.956058e-09
1.823915e-09
1.009063e-09
6.977457e-10
5.788561e-10
5.334785e-10
5.161713e-10
5.095762e-10
5.070658e-10
5.061116e-10
5.057494e-10
5.056121e-10
5.055603e-10
5.055407e-10
5.055333e-10
5.055306e-10
5.055295e-10
5.055291e-10
5.055290e-10
5.055289e-10
5.055289e-10
5.055289e-10
5.055289e-10
5.055289e-10
5.055289e-10
5.055289e-10
5.055289e-10
5.055289e-10
5.055289e-10
5.055289e-10
5.055289e-10
5.055289e-10
5.055289e-10
5.055289e-10
5.055289e-10
5.055289e-10
5.055289e-10
5.055289e-10
5.055289e-10
5.055289e-10
5.055289e-10
5.055289e-10
5.055289e-10
5.055289e-10
5.055289e-10
5.055289e-10
5.055289e-10
5.055289e-10
5.055289e-10
5.055289e-10
5.055289e-10
5.055289e-10
5.055289e-10
5.055289e-10
5.055289e-10
5.055289e-10
7.029654e-10
1.200000e+01
1.200000e+01
5.142857e+00
2.008163e+00
7.710787e-01
2.951170e-01
1.128798e-01
4.317029e-02
1.650985e-02
6.313924e-03
2.414655e-03
9.234446e-04
3.531560e-04
1.350587e-04
5.165099e-05
1.975313e-05
7.554339e-06
2.889124e-06
1.104998e-06
4.226950e-07
1.617637e-07
6.197783e-08
2.381842e-08
9.226311e-09
3.646641e-09
1.513302e-09
6.977457e-10
3.860252e-10
2.669112e-10
2.214119e-10
2.040401e-10
1.974115e-10
1.948842e-10
1.939215e-10
1.935552e-10
1.934160e-10
1.933632e-10
1.933432e-10
1.933356e-10
1.933328e-10
1.933317e-10
1.933313e-10
1.933312e-10
1.933311e-10
1.933311e-10
1.933311e-10
1.933311e-10
1.933311e-10
1.933311e-10
1.933311e-10
1.933311e-10
1.933311e-10
1.933311e-10
1.933311e-10
1.933311e-10
1.933311e-10
1.933311e-10
1.933311e-10
1.933311e-10
1.933311e-10
1.933311e-10
1.933311e-10
1.933311e-10
1.933311e-10
1.933311e-10
1.933311e-10
1.933311e-10
1.933311e-10
1.933311e-10
1.933311e-10
1.933311e-10
1.933311e-10
1.933311e-10
1.933311e-10
1.933311e-10
1.933311e-10
1.933311e-10
1.933311e-10
1.933311e-10
1.933311e-10
2.688890e-10
1.200000e+01
1.200000e+01
5.142857e+00
2.008163e+00
7.710787e-01
2.951170e-01
1.128798e-01
4.317029e-02
1.650985e-02
6.313924e-03
2.414655e-03
9.234446e-04
3.531559e-04
1.350586e-04
5.165093e-05
1.975306e-05
7.554258e-06
2.889034e-06
1.104900e-06
4.225901e-07
1.616541e-07
6.186487e-08
2.370312e-08
9.109444e-09
3.528764e-09
1.394794e-09
5.788561e-10
2.669112e-10
1.476689e-10
1.020981e-10
8.468741e-11
7.803818e-11
7.550010e-11
7.453191e-11
7.416288e-11
7.402236e-11
7.396892e-11
7.394862e-11
7.394092e-11
7.393800e-11
7.393690e-11
7.393649e-11
7.393633e-11
7.393627e-11
7.393625e-11
7.393624e-11
7.393624e-11
7.393624e-11
7.393624e-11
7.393624e-11
7.393624e-11
7.393624e-11
7.393624e-11
7.393624e-11
7.393624e-11
7.393624e-11
7.393624e-11
7.393624e-11
7.393624e-11
7.393624e-11
7.393624e-11
7.393624e-11
7.393624e-11
7.393624e-11
7.393624e-11
7.393624e-11
7.393624e-11
7.393624e-11
7.393624e-11
7.393624e-11
7.393624e-11
7.393624e-11
7.393624e-11
7.393624e-11
7.393624e-11
7.393624e-11
7.393624e-11
7.393624e-11
7.393624e-11
7.393624e-11
1.028476e-10
1.200000e+01
1.200000e+01
5.142857e+00
2.008163e+00
7.710787e-01
2.951170e-01
1.128798e-01
4.317029e-02
1.650985e-02
6.313924e-03
2.414655e-03
9.234446e-04
3.531559e-04
1.350586e-04
5.165091e-05
1.975303e-05
7.554229e-06
2.889001e-06
1.104864e-06
4.225513e-07
1.616132e-07
6.182239e-08
2.365953e-08