# vtk DataFile Version 3.0
steady_diffusion_2D_improved
ASCII
DATASET STRUCTURED_POINTS
DIMENSIONS 81 81 1
ORIGIN 0.0 0.0 0.0
SPACING 0.0125 0.0125 1.0
POINT_DATA 6561
SCALARS Temperature double 1
LOOKUP_TABLE default
1.000000e+01
1.000000e+01
1.000000e+01
1.000000e+01
1.000000e+01
1.000000e+01
1.000000e+01
1.000000e+01
1.000000e+01
1.000000e+01
1.000000e+01
1.000000e+01
1.000000e+01
1.000000e+01
1.000000e+01
1.000000e+01
1.000000e+01
1.000000e+01
1.000000e+01
1.000000e+01
1.000000e+01
1.000000e+01
1.000000e+01
1.000000e+01
1.000000e+01
1.000000e+01
1.000000e+01
1.000000e+01
1.000000e+01
1.000000e+01
1.000000e+01
1.000000e+01
1.000000e+01
1.000000e+01
1.000000e+01
1.000000e+01
1.000000e+01
1.000000e+01
1.000000e+01
1.000000e+01
1.000000e+01
1.000000e+01
1.000000e+01
1.000000e+01
1.000000e+01
1.000000e+01
1.000000e+01
1.000000e+01
1.000000e+01
1.000000e+01
1.000000e+01
1.000000e+01
1.000000e+01
1.000000e+01
1.000000e+01
1.000000e+01
1.000000e+01
1.000000e+01
1.000000e+01
1.000000e+01
1.000000e+01
1.000000e+01
1.000000e+01
1.000000e+01
1.000000e+01
1.000000e+01
1.000000e+01
1.000000e+01
1.000000e+01
1.000000e+01
1.000000e+01
1.000000e+01
1.000000e+01
1.000000e+01
1.000000e+01
1.000000e+01
1.000000e+01
1.000000e+01
1.000000e+01
1.000000e+01
1.000000e+01
1.000000e+01
1.000013e+01
1.000026e+01
1.000039e+01
1.000052e+01
1.000065e+01
1.000078e+01
1.000091e+01
1.000103e+01
1.000115e+01
1.000128e+01
1.000140e+01
1.000151e+01
1.000163e+01
1.000174e+01
1.000185e+01
1.000196e+01
1.000206e+01
1.000217e+01
1.000226e+01
1.000236e+01
1.000245e+01
1.000254e+01
1.000262e+01
1.000270e+01
1.000277e+01
1.000284e+01
1.000291e+01
1.000297e+01
1.000303e+01
1.000308e+01
1.000313e+01
1.000317e+01
1.000321e+01
1.000324e+01
1.000327e+01
1.000330e+01
1.000331e+01
1.000333e+01
1.000333e+01
1.000334e+01
1.000333e+01
1.000333e+01
1.000331e+01
1.000330e+01
1.000327e+01
1.000325e+01
1.000321e+01
1.000317e+01
1.000313e+01
1.000308e+01
1.000303e+01
1.000297e+01
1.000291e+01
1.000285e+01
1.000278e+01
1.000270e+01
1.000262e+01
1.000254e+01
1.000245e+01
1.000236e+01
1.000227e+01
1.000217e+01
1.000207e+01
1.000196e+01
1.000185e+01
1.000174e+01
1.000163e+01
1.000152e+01
1.000140e+01
1.000128e+01
1.000116e+01
1.000103e+01
1.000091e+01
1.000078e+01
1.000065e+01
1.000052e+01
1.000039e+01
1.000026e+01
1.000013e+01
1.000000e+01
1.000000e+01
1.000026e+01
1.000052e+01
1.000078e+01
1.000104e+01
1.000130e+01
1.000156e+01
1.000181e+01
1.000206e+01
1.000231e+01
1.000255e+01
1.000279e+01
1.000303e+01
1.000326e+01
1.000349e+01
1.000371e+01
1.000392e+01
1.000413e+01
1.000434e+01
1.000453e+01
1.000472e+01
1.000490e+01
1.000508e+01
1.000524e+01
1.000540e+01
1.000555e+01
1.000569e+01
1.000583e+01
1.000595e+01
1.000606e+01
1.000617e+01
1.000627e+01
1.000635e+01
1.000643e+01
1.000649e+01
1.000655e+01
1.000660e+01
1.000663e+01
1.000666e+01
1.000667e+01
1.000668e+01
1.000667e+01
1.000666e+01
1.000663e+01
1.000660e+01
1.000655e+01
1.000650e+01
1.000643e+01
1.000635e+01
1.000627e+01
1.000617e+01
1.000607e+01
1.000595e+01
1.000583e+01
1.000570e+01
1.000556e+01
1.000541e+01
1.000525e+01
1.000508e+01
1.000491e+01
1.000472e+01
1.000454e+01
1.000434e+01
1.000414e+01
1.000393e+01
1.000371e+01
1.000349e+01
1.000327e+01
1.000303e+01
1.000280e+01
1.000256e+01
1.000231e+01
1.000207e+01
1.000181e+01
1.000156e+01
1.000130e+01
1.000105e+01
1.000079e+01
1.000052e+01
1.000026e+01
1.000000e+01
1.000000e+01
1.000039e+01
1.000079e+01
1.000118e+01
1.000157e+01
1.000196e+01
1.000234e+01
1.000272e+01
1.000310e+01
1.000347e+01
1.000384e+01
1.000420e+01
1.000455e+01
1.000490e+01
1.000524e+01
1.000557e+01
1.000589e+01
1.000621e+01
1.000651e+01
1.000681e+01
1.000709e+01
1.000736e+01
1.000763e+01
1.000788e+01
1.000811e+01
1.000834e+01
1.000855e+01
1.000875e+01
1.000894e+01
1.000911e+01
1.000927e+01
1.000941e+01
1.000954e+01
1.000965e+01
1.000975e+01
1.000984e+01
1.000991e+01
1.000996e+01
1.001000e+01
1.001002e+01
1.001003e+01
1.001002e+01
1.001000e+01
1.000996e+01
1.000991e+01
1.000984e+01
1.000976e+01
1.000966e+01
1.000954e+01
1.000941e+01
1.000927e+01
1.000911e+01
1.000894e+01
1.000876e+01
1.000856e+01
1.000834e+01
1.000812e+01
1.000788e+01
1.000763e+01
1.000737e+01
1.000710e+01
1.000681e+01
1.000652e+01
1.000621e+01
1.000590e+01
1.000558e+01
1.000524e+01
1.000490e+01
1.000456e+01
1.000420e+01
1.000384e+01
1.000347e+01
1.000310e+01
1.000272e+01
1.000234e+01
1.000196e+01
1.000157e+01
1.000118e+01
1.000079e+01
1.000039e+01
1.000000e+01
1.000000e+01
1.000053e+01
1.000105e+01
1.000157e+01
1.000209e+01
1.000261e+01
1.000313e+01
1.000364e+01
1.000414e+01
1.000464e+01
1.000513e+01
1.000561e+01
1.000608e+01
1.000654e+01
1.000700e+01
1.000744e+01
1.000787e+01
1.000829e+01
1.000870e+01
1.000909e+01
1.000947e+01
1.000984e+01
1.001019e+01
1.001052e+01
1.001084e+01
1.001114e+01
1.001142e+01
1.001169e+01
1.001194e+01
1.001217e+01
1.001238e+01
1.001257e+01
1.001274e+01
1.001290e+01
1.001303e+01
1.001314e+01
1.001324e+01
1.001331e+01
1.001336e+01
1.001339e+01
1.001340e+01
1.001339e+01
1.001336e+01
1.001331e+01
1.001324e+01
1.001315e+01
1.001303e+01
1.001290e+01
1.001275e+01
1.001258e+01
1.001238e+01
1.001217e+01
1.001194e+01
1.001170e+01
1.001143e+01
1.001115e+01
1.001085e+01
1.001053e+01
1.001019e+01
1.000984e+01
1.000948e+01
1.000910e+01
1.000871e+01
1.000830e+01
1.000788e+01
1.000745e+01
1.000701e+01
1.000655e+01
1.000609e+01
1.000561e+01
1.000513e+01
1.000464e+01
1.000414e+01
1.000364e+01
1.000313e+01
1.000262e+01
1.000210e+01
1.000158e+01
1.000105e+01
1.000053e+01
1.000000e+01
1.000000e+01
1.000066e+01
1.000132e+01
1.000197e+01
1.000262e+01
1.000327e+01
1.000392e+01
1.000456e+01
1.000519e+01
1.000581e+01
1.000642e+01
1.000703e+01
1.000762e+01
1.000820e+01
1.000877e+01
1.000932e+01
1.000987e+01
1.001039e+01
1.001090e+01
1.001139e+01
1.001187e+01
1.001233e+01
1.001276e+01
1.001318e+01
1.001358e+01
1.001396e+01
1.001431e+01
1.001465e+01
1.001496e+01
1.001525e+01
1.001551e+01
1.001575e+01
1.001597e+01
1.001616e+01
1.001633e+01
1.001647e+01
1.001658e+01
1.001668e+01
1.001674e+01
1.001678e+01
1.001679e+01
1.001678e+01
1.001674e+01
1.001668e+01
1.001659e+01
1.001647e+01
1.001633e+01
1.001616e+01
1.001597e+01
1.001576e+01
1.001552e+01
1.001525e+01
1.001497e+01
1.001466e+01
1.001432e+01
1.001397e+01
1.001359e+01
1.001319e+01
1.001277e+01
1.001234e+01
1.001188e+01
1.001140e+01
1.001091e+01
1.001040e+01
1.000988e+01
1.000933e+01
1.000878e+01
1.000821e+01
1.000763e+01
1.000703e+01
1.000643e+01
1.000582e+01
1.000519e+01
1.000456e+01
1.000392e+01
1.000328e+01
1.000263e+01
1.000198e+01
1.000132e+01
1.000066e+01
1.000000e+01
1.000000e+01
1.000079e+01
1.000158e+01
1.000237e+01
1.000316e+01
1.000394e+01
1.000471e+01
1.000548e+01
1.000624e+01
1.000699e+01
1.000773e+01
1.000846e+01
1.000917e+01
1.000987e+01
1.001055e+01
1.001122e+01
1.001187e+01
1.001251e+01
1.001312e+01
1.001371e+01
1.001429e+01
1.001484e+01
1.001536e+01
1.001587e+01
1.001635e+01
1.001680e+01
1.001723e+01
1.001763e+01
1.001800e+01
1.001835e+01
1.001867e+01
1.001896e+01
1.001922e+01
1.001945e+01
1.001965e+01
1.001982e+01
1.001996e+01
1.002007e+01
1.002015e+01
1.002019e+01
1.002021e+01
1.002020e+01
1.002015e+01
1.002007e+01
1.001996e+01
1.001982e+01
1.001965e+01
1.001945e+01
1.001922e+01
1.001896e+01
1.001868e+01
1.001836e+01
1.001801e+01
1.001764e+01
1.001724e+01
1.001681e+01
1.001636e+01
1.001588e+01
1.001537e+01
1.001485e+01
1.001430e+01
1.001372e+01
1.001313e+01
1.001252e+01
1.001189e+01
1.001123e+01
1.001057e+01
1.000988e+01
1.000918e+01
1.000847e+01
1.000774e+01
1.000700e+01
1.000625e+01
1.000549e+01
1.000472e+01
1.000395e+01
1.000316e+01
1.000238e+01
1.000159e+01
1.000079e+01
1.000000e+01
1.000000e+01
1.000093e+01
1.000185e+01
1.000278e+01
1.000370e+01
1.000461e+01
1.000552e+01
1.000642e+01
1.000731e+01
1.000818e+01
1.000905e+01
1.000990e+01
1.001074e+01
1.001155e+01
1.001236e+01
1.001314e+01
1.001390e+01
1.001464e+01
1.001536e+01
1.001605e+01
1.001672e+01
1.001737e+01
1.001799e+01
1.001857e+01
1.001914e+01
1.001967e+01
1.002017e+01
1.002064e+01
1.002108e+01
1.002148e+01
1.002186e+01
1.002219e+01
1.002250e+01
1.002277e+01
1.002300e+01
1.002320e+01
1.002337e+01
1.002350e+01
1.002359e+01
1.002364e+01
1.002366e+01
1.002364e+01
1.002359e+01
1.002350e+01
1.002337e+01
1.002321e+01
1.002301e+01
1.002278e+01
1.002251e+01
1.002220e+01
1.002186e+01
1.002149e+01
1.002109e+01
1.002065e+01
1.002018e+01
1.001968e+01
1.001915e+01
1.001859e+01
1.001800e+01
1.001738e+01
1.001674e+01
1.001607e+01
1.001537e+01
1.001465e+01
1.001391e+01
1.001315e+01
1.001237e+01
1.001157e+01
1.001075e+01
1.000991e+01
1.000906e+01
1.000819e+01
1.000732e+01
1.000643e+01
1.000553e+01
1.000462e+01
1.000370e+01
1.000278e+01
1.000186e+01
1.000093e+01
1.000000e+01
1.000000e+01
1.000107e+01
1.000213e+01
1.000319e+01
1.000424e+01
1.000529e+01
1.000633e+01
1.000736e+01
1.000838e+01
1.000939e+01
1.001038e+01
1.001136e+01
1.001232e+01
1.001326e+01
1.001418e+01
1.001508e+01
1.001595e+01
1.001680e+01
1.001762e+01
1.001842e+01
1.001919e+01
1.001993e+01
1.002064e+01
1.002131e+01
1.002196e+01
1.002257e+01
1.002314e+01
1.002368e+01
1.002418e+01
1.002465e+01
1.002508e+01
1.002547e+01
1.002582e+01
1.002613e+01
1.002640e+01
1.002662e+01
1.002681e+01
1.002696e+01
1.002706e+01
1.002713e+01
1.002715e+01
1.002713e+01
1.002707e+01
1.002696e+01
1.002682e+01
1.002663e+01
1.002640e+01
1.002613e+01
1.002582e+01
1.002548e+01
1.002509e+01
1.002466e+01
1.002420e+01
1.002369e+01
1.002315e+01
1.002258e+01
1.002197e+01
1.002133e+01
1.002065e+01
1.001994e+01
1.001920e+01
1.001844e+01
1.001764e+01
1.001682e+01
1.001597e+01
1.001509e+01
1.001419e+01
1.001327e+01
1.001233e+01
1.001137e+01
1.001040e+01
1.000940e+01
1.000839e+01
1.000737e+01
1.000634e+01
1.000530e+01
1.000425e+01
1.000319e+01
1.000213e+01
1.000107e+01
1.000000e+01
1.000000e+01
1.000120e+01
1.000241e+01
1.000360e+01
1.000480e+01
1.000598e+01
1.000716e+01
1.000832e+01
1.000947e+01
1.001061e+01
1.001173e+01
1.001284e+01
1.001392e+01
1.001498e+01
1.001602e+01
1.001704e+01
1.001803e+01
1.001899e+01
1.001992e+01
1.002082e+01
1.002169e+01
1.002252e+01
1.002332e+01
1.002409e+01
1.002481e+01
1.002550e+01
1.002615e+01
1.002676e+01
1.002733e+01
1.002786e+01
1.002834e+01
1.002878e+01
1.002917e+01
1.002953e+01
1.002983e+01
1.003009e+01
1.003030e+01
1.003047e+01
1.003059e+01
1.003066e+01
1.003068e+01
1.003066e+01
1.003059e+01
1.003047e+01
1.003031e+01
1.003009e+01
1.002984e+01
1.002953e+01
1.002918e+01
1.002879e+01
1.002835e+01
1.002787e+01
1.002734e+01
1.002678e+01
1.002617e+01
1.002552e+01
1.002483e+01
1.002410e+01
1.002334e+01
1.002254e+01
1.002170e+01
1.002083e+01
1.001993e+01
1.001900e+01
1.001804e+01
1.001705e+01
1.001604e+01
1.001500e+01
1.001394e+01
1.001285e+01
1.001175e+01
1.001063e+01
1.000949e+01
1.000833e+01
1.000717e+01
1.000599e+01
1.000480e+01
1.000361e+01
1.000241e+01
1.000121e+01
1.000000e+01
1.000000e+01
1.000134e+01
1.000269e+01
1.000402e+01
1.000536e+01
1.000668e+01
1.000799e+01
1.000929e+01
1.001058e+01
1.001185e+01
1.001310e+01
1.001434e+01
1.001555e+01
1.001673e+01
1.001789e+01
1.001903e+01
1.002013e+01
1.002120e+01
1.002224e+01
1.002325e+01
1.002422e+01
1.002515e+01
1.002604e+01
1.002690e+01
1.002771e+01
1.002848e+01
1.002921e+01
1.002989e+01
1.003052e+01
1.003111e+01
1.003165e+01
1.003214e+01
1.003258e+01
1.003297e+01
1.003331e+01
1.003360e+01
1.003384e+01
1.003402e+01
1.003416e+01
1.003424e+01
1.003426e+01
1.003424e+01
1.003416e+01
1.003403e+01
1.003384e+01
1.003361e+01
1.003332e+01
1.003298e+01
1.003259e+01
1.003215e+01
1.003166e+01
1.003112e+01
1.003054e+01
1.002990e+01
1.002922e+01
1.002850e+01
1.002773e+01
1.002692e+01
1.002606e+01
1.002517e+01
1.002424e+01
1.002327e+01
1.002226e+01
1.002122e+01
1.002015e+01
1.001904e+01
1.001791e+01
1.001675e+01
1.001556e+01
1.001435e+01
1.001312e+01
1.001187e+01
1.001059e+01
1.000931e+01
1.000800e+01
1.000669e+01
1.000536e+01
1.000403e+01
1.000269e+01
1.000135e+01
1.000000e+01
1.000000e+01
1.000149e+01
1.000297e+01
1.000445e+01
1.000592e+01
1.000739e+01
1.000884e+01
1.001028e+01
1.001170e+01
1.001311e+01
1.001449e+01
1.001586e+01
1.001720e+01
1.001851e+01
1.001979e+01
1.002104e+01
1.002227e+01
1.002345e+01
1.002460e+01
1.002571e+01
1.002679e+01
1.002782e+01
1.002881e+01
1.002975e+01
1.003065e+01
1.003150e+01
1.003230e+01
1.003306e+01
1.003376e+01
1.003441e+01
1.003501e+01
1.003555e+01
1.003604e+01
1.003647e+01
1.003685e+01
1.003717e+01
1.003743e+01
1.003763e+01
1.003778e+01
1.003787e+01
1.003790e+01
1.003787e+01
1.003778e+01
1.003764e+01
1.003743e+01
1.003717e+01
1.003686e+01
1.003648e+01
1.003605e+01
1.003556e+01
1.003502e+01
1.003442e+01
1.003378e+01
1.003307e+01
1.003232e+01
1.003152e+01
1.003067e+01
1.002977e+01
1.002883e+01
1.002784e+01
1.002681e+01
1.002574e+01
1.002462e+01
1.002347e+01
1.002229e+01
1.002107e+01
1.001981e+01
1.001853e+01
1.001721e+01
1.001588e+01
1.001451e+01
1.001312e+01
1.001172e+01
1.001029e+01
1.000885e+01
1.000740e+01
1.000593e+01
1.000446e+01
1.000298e+01
1.000149e+01
1.000000e+01
1.000000e+01
1.000163e+01
1.000326e+01
1.000489e+01
1.000650e+01
1.000811e+01
1.000970e+01
1.001128e+01
1.001285e+01
1.001439e+01
1.001591e+01
1.001740e+01
1.001887e+01
1.002031e+01
1.002172e+01
1.002310e+01
1.002444e+01
1.002574e+01
1.002700e+01
1.002822e+01
1.002940e+01
1.003053e+01
1.003162e+01
1.003265e+01
1.003364e+01
1.003457e+01
1.003546e+01
1.003628e+01
1.003705e+01
1.003777e+01
1.003842e+01
1.003902e+01
1.003955e+01
1.004003e+01
1.004044e+01
1.004079e+01
1.004108e+01
1.004130e+01
1.004147e+01
1.004156e+01
1.004159e+01
1.004156e+01
1.004147e+01
1.004131e+01
1.004109e+01
1.004080e+01
1.004045e+01
1.004004e+01
1.003957e+01
1.003903e+01
1.003844e+01
1.003778e+01
1.003707e+01
1.003630e+01
1.003547e+01
1.003459e+01
1.003366e+01
1.003268e+01
1.003164e+01
1.003056e+01
1.002942e+01
1.002825e+01
1.002703e+01
1.002576e+01
1.002446e+01
1.002312e+01
1.002174e+01
1.002033e+01
1.001889e+01
1.001742e+01
1.001593e+01
1.001441e+01
1.001286e+01
1.001130e+01
1.000972e+01
1.000812e+01
1.000651e+01
1.000489e+01
1.000327e+01
1.000163e+01
1.000000e+01
1.000000e+01
1.000178e+01
1.000356e+01
1.000533e+01
1.000709e+01
1.000884e+01
1.001058e+01
1.001230e+01
1.001401e+01
1.001569e+01
1.001735e+01
1.001898e+01
1.002058e+01
1.002215e+01
1.002369e+01
1.002519e+01
1.002665e+01
1.002807e+01
1.002945e+01
1.003078e+01
1.003206e+01
1.003330e+01
1.003448e+01
1.003561e+01
1.003668e+01
1.003770e+01
1.003866e+01
1.003957e+01
1.004041e+01
1.004118e+01
1.004190e+01
1.004255e+01
1.004313e+01
1.004365e+01
1.004410e+01
1.004448e+01
1.004480e+01
1.004504e+01
1.004522e+01
1.004532e+01
1.004536e+01
1.004532e+01
1.004522e+01
1.004505e+01
1.004480e+01
1.004449e+01
1.004411e+01
1.004366e+01
1.004314e+01
1.004256e+01
1.004191e+01
1.004120e+01
1.004042e+01
1.003958e+01
1.003868e+01
1.003772e+01
1.003671e+01
1.003563e+01
1.003450e+01
1.003332e+01
1.003209e+01
1.003080e+01
1.002947e+01
1.002809e+01
1.002667e+01
1.002521e+01
1.002371e+01
1.002217e+01
1.002060e+01
1.001900e+01
1.001737e+01
1.001571e+01
1.001402e+01
1.001232e+01
1.001060e+01
1.000885e+01
1.000710e+01
1.000533e+01
1.000356e+01
1.000178e+01
1.000000e+01
1.000000e+01
1.000193e+01
1.000386e+01
1.000578e+01
1.000769e+01
1.000959e+01
1.001148e+01
1.001334e+01
1.001519e+01
1.001702e+01
1.001882e+01
1.002058e+01
1.002232e+01
1.002403e+01
1.002569e+01
1.002732e+01
1.002890e+01
1.003044e+01
1.003194e+01
1.003338e+01
1.003477e+01
1.003611e+01
1.003739e+01
1.003862e+01
1.003979e+01
1.004089e+01
1.004193e+01
1.004291e+01
1.004382e+01
1.004467e+01
1.004544e+01
1.004615e+01
1.004678e+01
1.004734e+01
1.004783e+01
1.004824e+01
1.004858e+01
1.004885e+01
1.004904e+01
1.004916e+01
1.004919e+01
1.004916e+01
1.004904e+01
1.004886e+01
1.004859e+01
1.004825e+01
1.004784e+01
1.004735e+01
1.004679e+01
1.004616e+01
1.004546e+01
1.004468e+01
1.004384e+01
1.004293e+01
1.004196e+01
1.004091e+01
1.003981e+01
1.003864e+01
1.003742e+01
1.003614e+01
1.003480e+01
1.003341e+01
1.003196e+01
1.003047e+01
1.002893e+01
1.002734e+01
1.002572e+01
1.002405e+01
1.002235e+01
1.002061e+01
1.001884e+01
1.001704e+01
1.001521e+01
1.001336e+01
1.001149e+01
1.000960e+01
1.000770e+01
1.000579e+01
1.000386e+01
1.000193e+01
1.000000e+01
1.000000e+01
1.000208e+01
1.000416e+01
1.000624e+01
1.000830e+01
1.001035e+01
1.001239e+01
1.001441e+01
1.001640e+01
1.001837e+01
1.002031e+01
1.002222e+01
1.002410e+01
1.002594e+01
1.002774e+01
1.002949e+01
1.003120e+01
1.003287e+01
1.003448e+01
1.003604e+01
1.003754e+01
1.003898e+01
1.004037e+01
1.004169e+01
1.004295e+01
1.004415e+01
1.004527e+01
1.004633e+01
1.004731e+01
1.004822e+01
1.004906e+01
1.004982e+01
1.005050e+01
1.005111e+01
1.005164e+01
1.005208e+01
1.005245e+01
1.005274e+01
1.005294e+01
1.005307e+01
1.005311e+01
1.005307e+01
1.005295e+01
1.005274e+01
1.005246e+01
1.005209e+01
1.005165e+01
1.005112e+01
1.005052e+01
1.004983e+01
1.004907e+01
1.004824e+01
1.004733e+01
1.004635e+01
1.004529e+01
1.004417e+01
1.004298e+01
1.004172e+01
1.004040e+01
1.003901e+01
1.003757e+01
1.003606e+01
1.003450e+01
1.003289e+01
1.003123e+01
1.002952e+01
1.002776e+01
1.002596e+01
1.002412e+01
1.002225e+01
1.002033e+01
1.001839e+01
1.001642e+01
1.001442e+01
1.001241e+01
1.001037e+01
1.000831e+01
1.000625e+01
1.000417e+01
1.000209e+01
1.000000e+01
1.000000e+01
1.000224e+01
1.000448e+01
1.000671e+01
1.000893e+01
1.001113e+01
1.001332e+01
1.001549e+01
1.001764e+01
1.001975e+01
1.002184e+01
1.002390e+01
1.002591e+01
1.002789e+01
1.002982e+01
1.003171e+01
1.003355e+01
1.003534e+01
1.003707e+01
1.003875e+01
1.004037e+01
1.004192e+01
1.004341e+01
1.004483e+01
1.004619e+01
1.004747e+01
1.004868e+01
1.004981e+01
1.005087e+01
1.005185e+01
1.005275e+01
1.005357e+01
1.005430e+01
1.005496e+01
1.005552e+01
1.005601e+01
1.005640e+01
1.005671e+01
1.005693e+01
1.005706e+01
1.005711e+01
1.005706e+01
1.005693e+01
1.005671e+01
1.005641e+01
1.005602e+01
1.005554e+01
1.005497e+01
1.005432e+01
1.005359e+01
1.005277e+01
1.005187e+01
1.005089e+01
1.004984e+01
1.004870e+01
1.004750e+01
1.004621e+01
1.004486e+01
1.004344e+01
1.004195e+01
1.004040e+01
1.003878e+01
1.003710e+01
1.003537e+01
1.003358e+01
1.003174e+01
1.002985e+01
1.002792e+01
1.002594e+01
1.002392e+01
1.002187e+01
1.001978e+01
1.001766e+01
1.001551e+01
1.001334e+01
1.001115e+01
1.000894e+01
1.000672e+01
1.000448e+01
1.000224e+01
1.000000e+01
1.000000e+01
1.000240e+01
1.000480e+01
1.000719e+01
1.000957e+01
1.001193e+01
1.001428e+01
1.001660e+01
1.001890e+01
1.002117e+01
1.002341e+01
1.002561e+01
1.002777e+01
1.002989e+01
1.003196e+01
1.003398e+01
1.003596e+01
1.003787e+01
1.003973e+01
1.004153e+01
1.004326e+01
1.004492e+01
1.004652e+01
1.004805e+01
1.004950e+01
1.005087e+01
1.005217e+01
1.005338e+01
1.005452e+01
1.005557e+01
1.005653e+01
1.005741e+01
1.005819e+01
1.005889e+01
1.005950e+01
1.006002e+01
1.006044e+01
1.006077e+01
1.006101e+01
1.006115e+01
1.006120e+01
1.006115e+01
1.006101e+01
1.006078e+01
1.006045e+01
1.006003e+01
1.005951e+01
1.005891e+01
1.005821e+01
1.005742e+01
1.005655e+01
1.005559e+01
1.005454e+01
1.005341e+01
1.005219e+01
1.005090e+01
1.004952e+01
1.004807e+01
1.004655e+01
1.004495e+01
1.004329e+01
1.004156e+01
1.003976e+01
1.003790e+01
1.003599e+01
1.003401e+01
1.003199e+01
1.002992e+01
1.002780e+01
1.002563e+01
1.002343e+01
1.002119e+01
1.001892e+01
1.001662e+01
1.001429e+01
1.001195e+01
1.000958e+01
1.000720e+01
1.000480e+01
1.000240e+01
1.000000e+01
1.000000e+01
1.000257e+01
1.000513e+01
1.000768e+01
1.001022e+01
1.001275e+01
1.001525e+01
1.001774e+01
1.002019e+01
1.002262e+01
1.002501e+01
1.002736e+01
1.002967e+01
1.003193e+01
1.003415e+01
1.003631e+01
1.003842e+01
1.004046e+01
1.004245e+01
1.004437e+01
1.004622e+01
1.004800e+01
1.004970e+01
1.005133e+01
1.005288e+01
1.005435e+01
1.005574e+01
1.005704e+01
1.005825e+01
1.005937e+01
1.006040e+01
1.006133e+01
1.006218e+01
1.006292e+01
1.006357e+01
1.006412e+01
1.006458e+01
1.006493e+01
1.006518e+01
1.006533e+01
1.006539e+01
1.006534e+01
1.006519e+01
1.006494e+01
1.006459e+01
1.006413e+01
1.006359e+01
1.006294e+01
1.006219e+01
1.006135e+01
1.006042e+01
1.005939e+01
1.005827e+01
1.005706e+01
1.005576e+01
1.005438e+01
1.005291e+01
1.005136e+01
1.004973e+01
1.004803e+01
1.004625e+01
1.004440e+01
1.004248e+01
1.004050e+01
1.003845e+01
1.003634e+01
1.003418e+01
1.003196e+01
1.002970e+01
1.002739e+01
1.002503e+01
1.002264e+01
1.002022e+01
1.001776e+01
1.001527e+01
1.001276e+01
1.001023e+01
1.000769e+01
1.000513e+01
1.000257e+01
1.000000e+01
1.000000e+01
1.000273e+01
1.000546e+01
1.000818e+01
1.001089e+01
1.001359e+01
1.001626e+01
1.001890e+01
1.002152e+01
1.002410e+01
1.002665e+01
1.002916e+01
1.003162e+01
1.003403e+01
1.003639e+01
1.003869e+01
1.004094e+01
1.004312e+01
1.004523e+01
1.004728e+01
1.004925e+01
1.005115e+01
1.005297e+01
1.005470e+01
1.005635e+01
1.005792e+01
1.005940e+01
1.006078e+01
1.006207e+01
1.006327e+01
1.006436e+01
1.006536e+01
1.006626e+01
1.006705e+01
1.006775e+01
1.006833e+01
1.006882e+01
1.006919e+01
1.006946e+01
1.006962e+01
1.006968e+01
1.006963e+01
1.006947e+01
1.006920e+01
1.006882e+01
1.006834e+01
1.006776e+01
1.006707e+01
1.006628e+01
1.006538e+01
1.006438e+01
1.006329e+01
1.006210e+01
1.006081e+01
1.005942e+01
1.005795e+01
1.005639e+01
1.005473e+01
1.005300e+01
1.005118e+01
1.004929e+01
1.004731e+01
1.004527e+01
1.004315e+01
1.004097e+01
1.003873e+01
1.003642e+01
1.003406e+01
1.003165e+01
1.002919e+01
1.002668e+01
1.002413e+01
1.002154e+01
1.001892e+01
1.001628e+01
1.001360e+01
1.001091e+01
1.000819e+01
1.000547e+01
1.000274e+01
1.000000e+01
1.000000e+01
1.000291e+01
1.000581e+01
1.000870e+01
1.001158e+01
1.001444e+01
1.001728e+01
1.002010e+01
1.002288e+01
1.002563e+01
1.002834e+01
1.003100e+01
1.003362e+01
1.003618e+01
1.003869e+01
1.004114e+01
1.004353e+01
1.004585e+01
1.004809e+01
1.005027e+01
1.005237e+01
1.005438e+01
1.005631e+01
1.005816e+01
1.005992e+01
1.006158e+01
1.006315e+01
1.006462e+01
1.006599e+01
1.006726e+01
1.006843e+01
1.006949e+01
1.007045e+01
1.007129e+01
1.007203e+01
1.007265e+01
1.007316e+01
1.007356e+01
1.007385e+01
1.007402e+01
1.007408e+01
1.007402e+01
1.007385e+01
1.007357e+01
1.007317e+01
1.007266e+01
1.007204e+01
1.007131e+01
1.007046e+01
1.006951e+01
1.006845e+01
1.006729e+01
1.006602e+01
1.006465e+01
1.006318e+01
1.006161e+01
1.005995e+01
1.005819e+01
1.005635e+01
1.005442e+01
1.005240e+01
1.005030e+01
1.004813e+01
1.004588e+01
1.004356e+01
1.004117e+01
1.003872e+01
1.003621e+01
1.003365e+01
1.003103e+01
1.002836e+01
1.002565e+01
1.002290e+01
1.002012e+01
1.001730e+01
1.001446e+01
1.001160e+01
1.000871e+01
1.000582e+01
1.000291e+01
1.000000e+01
1.000000e+01
1.000308e+01
1.000616e+01
1.000923e+01
1.001229e+01
1.001533e+01
1.001834e+01
1.002132e+01
1.002428e+01
1.002719e+01
1.003006e+01
1.003289e+01
1.003567e+01
1.003839e+01
1.004105e+01
1.004365e+01
1.004618e+01
1.004864e+01
1.005103e+01
1.005334e+01
1.005556e+01
1.005770e+01
1.005975e+01
1.006171e+01
1.006357e+01
1.006534e+01
1.006700e+01
1.006856e+01
1.007002e+01
1.007137e+01
1.007261e+01
1.007373e+01
1.007474e+01
1.007564e+01
1.007642e+01
1.007708e+01
1.007763e+01
1.007805e+01
1.007836e+01
1.007854e+01
1.007860e+01
1.007854e+01
1.007836e+01
1.007806e+01
1.007764e+01
1.007710e+01
1.007644e+01
1.007566e+01
1.007476e+01
1.007375e+01
1.007263e+01
1.007139e+01
1.007005e+01
1.006859e+01
1.006703e+01
1.006537e+01
1.006361e+01
1.006174e+01
1.005979e+01
1.005774e+01
1.005560e+01
1.005337e+01
1.005107e+01
1.004868e+01
1.004622e+01
1.004369e+01
1.004109e+01
1.003842e+01
1.003570e+01
1.003292e+01
1.003009e+01
1.002722e+01
1.002430e+01
1.002135e+01
1.001836e+01
1.001534e+01
1.001230e+01
1.000924e+01
1.000617e+01
1.000309e+01
1.000000e+01
1.000000e+01
1.000327e+01
1.000653e+01
1.000978e+01
1.001302e+01
1.001623e+01
1.001942e+01
1.002258e+01
1.002571e+01
1.002880e+01
1.003184e+01
1.003484e+01
1.003778e+01
1.004066e+01
1.004348e+01
1.004623e+01
1.004891e+01
1.005152e+01
1.005405e+01
1.005649e+01
1.005885e+01
1.006111e+01
1.006328e+01
1.006536e+01
1.006733e+01
1.006920e+01
1.007096e+01
1.007262e+01
1.007416e+01
1.007559e+01
1.007690e+01
1.007809e+01
1.007916e+01
1.008011e+01
1.008094e+01
1.008164e+01
1.008222e+01
1.008267e+01
1.008299e+01
1.008318e+01
1.008325e+01
1.008318e+01
1.008299e+01
1.008267e+01
1.008223e+01
1.008165e+01
1.008095e+01
1.008013e+01
1.007918e+01
1.007811e+01
1.007692e+01
1.007561e+01
1.007419e+01
1.007265e+01
1.007100e+01
1.006923e+01
1.006737e+01
1.006539e+01
1.006332e+01
1.006115e+01
1.005888e+01
1.005653e+01
1.005408e+01
1.005156e+01
1.004895e+01
1.004627e+01
1.004351e+01
1.004069e+01
1.003781e+01
1.003487e+01
1.003187e+01
1.002883e+01
1.002574e+01
1.002261e+01
1.001944e+01
1.001625e+01
1.001303e+01
1.000979e+01
1.000654e+01
1.000327e+01
1.000000e+01
1.000000e+01
1.000345e+01
1.000690e+01
1.001034e+01
1.001376e+01
1.001716e+01
1.002054e+01
1.002388e+01
1.002719e+01
1.003045e+01
1.003367e+01
1.003684e+01
1.003995e+01
1.004299e+01
1.004597e+01
1.004889e+01
1.005172e+01
1.005448e+01
1.005715e+01
1.005973e+01
1.006222e+01
1.006462e+01
1.006692e+01
1.006911e+01
1.007120e+01
1.007317e+01
1.007504e+01
1.007679e+01
1.007842e+01
1.007993e+01
1.008131e+01
1.008257e+01
1.008371e+01
1.008471e+01
1.008559e+01
1.008633e+01
1.008694e+01
1.008741e+01
1.008775e+01
1.008796e+01
1.008803e+01
1.008796e+01
1.008776e+01
1.008742e+01
1.008695e+01
1.008634e+01
1.008560e+01
1.008473e+01
1.008373e+01
1.008260e+01
1.008134e+01
1.007995e+01
1.007845e+01
1.007682e+01
1.007507e+01
1.007321e+01
1.007123e+01
1.006915e+01
1.006695e+01
1.006466e+01
1.006226e+01
1.005977e+01
1.005719e+01
1.005452e+01
1.005176e+01
1.004892e+01
1.004601e+01
1.004303e+01
1.003998e+01
1.003687e+01
1.003370e+01
1.003048e+01
1.002721e+01
1.002391e+01
1.002056e+01
1.001718e+01
1.001378e+01
1.001035e+01
1.000691e+01
1.000346e+01
1.000000e+01
1.000000e+01
1.000365e+01
1.000729e+01
1.001092e+01
1.001453e+01
1.001812e+01
1.002169e+01
1.002522e+01
1.002871e+01
1.003215e+01
1.003555e+01
1.003889e+01
1.004218e+01
1.004540e+01
1.004854e+01
1.005162e+01
1.005461e+01
1.005752e+01
1.006034e+01
1.006307e+01
1.006570e+01
1.006823e+01
1.007066e+01
1.007297e+01
1.007517e+01
1.007726e+01
1.007923e+01
1.008108e+01
1.008280e+01
1.008439e+01
1.008586e+01
1.008719e+01
1.008838e+01
1.008944e+01
1.009037e+01
1.009115e+01
1.009179e+01
1.009229e+01
1.009265e+01
1.009287e+01
1.009294e+01
1.009287e+01
1.009266e+01
1.009230e+01
1.009180e+01
1.009116e+01
1.009038e+01
1.008946e+01
1.008840e+01
1.008721e+01
1.008588e+01
1.008442e+01
1.008283e+01
1.008111e+01
1.007926e+01
1.007730e+01
1.007521e+01
1.007301e+01
1.007069e+01
1.006827e+01
1.006574e+01
1.006311e+01
1.006038e+01
1.005756e+01
1.005465e+01
1.005166e+01
1.004858e+01
1.004543e+01
1.004221e+01
1.003893e+01
1.003558e+01
1.003218e+01
1.002873e+01
1.002524e+01
1.002171e+01
1.001814e+01
1.001455e+01
1.001093e+01
1.000730e+01
1.000365e+01
1.000000e+01
1.000000e+01
1.000385e+01
1.000769e+01
1.001151e+01
1.001532e+01
1.001911e+01
1.002287e+01
1.002659e+01
1.003027e+01
1.003391e+01
1.003749e+01
1.004101e+01
1.004448e+01
1.004787e+01
1.005119e+01
1.005443e+01
1.005759e+01
1.006066e+01
1.006363e+01
1.006651e+01
1.006928e+01
1.007195e+01
1.007451e+01
1.007695e+01
1.007927e+01
1.008147e+01
1.008355e+01
1.008550e+01
1.008731e+01
1.008899e+01
1.009053e+01
1.009194e+01
1.009320e+01
1.009432e+01
1.009529e+01
1.009612e+01
1.009680e+01
1.009732e+01
1.009770e+01
1.009793e+01
1.009801e+01
1.009793e+01
1.009771e+01
1.009733e+01
1.009681e+01
1.009613e+01
1.009531e+01
1.009434e+01
1.009322e+01
1.009196e+01
1.009056e+01
1.008902e+01
1.008734e+01
1.008553e+01
1.008358e+01
1.008151e+01
1.007931e+01
1.007699e+01
1.007455e+01
1.007199e+01
1.006932e+01
1.006655e+01
1.006367e+01
1.006070e+01
1.005763e+01
1.005447e+01
1.005123e+01
1.004791e+01
1.004451e+01
1.004105e+01
1.003752e+01
1.003394e+01
1.003030e+01
1.002662e+01
1.002289e+01
1.001913e+01
1.001534e+01
1.001153e+01
1.000769e+01
1.000385e+01
1.000000e+01
1.000000e+01
1.000405e+01
1.000809e+01
1.001213e+01
1.001614e+01
1.002013e+01
1.002409e+01
1.002801e+01
1.003188e+01
1.003571e+01
1.003949e+01
1.004320e+01
1.004685e+01
1.005042e+01
1.005392e+01
1.005733e+01
1.006066e+01
1.006389e+01
1.006702e+01
1.007005e+01
1.007297e+01
1.007578e+01
1.007848e+01
1.008105e+01
1.008349e+01
1.008581e+01
1.008800e+01
1.009005e+01
1.009196e+01
1.009373e+01
1.009536e+01
1.009684e+01
1.009817e+01
1.009934e+01
1.010037e+01
1.010124e+01
1.010195e+01
1.010251e+01
1.010291e+01
1.010315e+01
1.010323e+01
1.010315e+01
1.010291e+01
1.010252e+01
1.010196e+01
1.010125e+01
1.010038e+01
1.009936e+01
1.009819e+01
1.009686e+01
1.009538e+01
1.009376e+01
1.009199e+01
1.009008e+01
1.008803e+01
1.008585e+01
1.008353e+01
1.008109e+01
1.007852e+01
1.007582e+01
1.007301e+01
1.007009e+01
1.006706e+01
1.006393e+01
1.006070e+01
1.005737e+01
1.005396e+01
1.005046e+01
1.004688e+01
1.004324e+01
1.003952e+01
1.003574e+01
1.003191e+01
1.002803e+01
1.002411e+01
1.002015e+01
1.001616e+01
1.001214e+01
1.000810e+01
1.000405e+01
1.000000e+01
1.000000e+01
1.000426e+01
1.000852e+01
1.001276e+01
1.001698e+01
1.002118e+01
1.002534e+01
1.002947e+01
1.003355e+01
1.003758e+01
1.004155e+01
1.004545e+01
1.004929e+01
1.005305e+01
1.005673e+01
1.006032e+01
1.006382e+01
1.006722e+01
1.007052e+01
1.007370e+01
1.007678e+01
1.007974e+01
1.008257e+01
1.008528e+01
1.008785e+01
1.009029e+01
1.009259e+01
1.009475e+01
1.009676e+01
1.009862e+01
1.010033e+01
1.010189e+01
1.010329e+01
1.010452e+01
1.010560e+01
1.010652e+01
1.010727e+01
1.010786e+01
1.010827e+01
1.010853e+01
1.010861e+01
1.010853e+01
1.010828e+01
1.010786e+01
1.010728e+01
1.010653e+01
1.010562e+01
1.010454e+01
1.010331e+01
1.010191e+01
1.010036e+01
1.009865e+01
1.009679e+01
1.009478e+01
1.009263e+01
1.009033e+01
1.008789e+01
1.008532e+01
1.008261e+01
1.007978e+01
1.007682e+01
1.007375e+01
1.007056e+01
1.006726e+01
1.006386e+01
1.006036e+01
1.005677e+01
1.005309e+01
1.004933e+01
1.004549e+01
1.004158e+01
1.003761e+01
1.003358e+01
1.002950e+01
1.002537e+01
1.002120e+01
1.001700e+01
1.001277e+01
1.000853e+01
1.000427e+01
1.000000e+01
1.000000e+01
1.000448e+01
1.000895e+01
1.001341e+01
1.001785e+01
1.002226e+01
1.002664e+01
1.003098e+01
1.003526e+01
1.003950e+01
1.004367e+01
1.004778e+01
1.005181e+01
1.005576e+01
1.005963e+01
1.006341e+01
1.006708e+01
1.007066e+01
1.007412e+01
1.007748e+01
1.008071e+01
1.008381e+01