# vtk DataFile Version 3.0
steady_diffusion_2D_improved
ASCII
DATASET STRUCTURED_POINTS
DIMENSIONS 21 21 1
ORIGIN 0.0 0.0 0.0
SPACING 0.05 0.05 1.0
POINT_DATA 441
SCALARS Temperature double 1
LOOKUP_TABLE default
5.000000e+00
5.000000e+00
5.000000e+00
5.000000e+00
5.000000e+00
5.000000e+00
5.000000e+00
5.000000e+00
5.000000e+00
5.000000e+00
5.000000e+00
5.000000e+00
5.000000e+00
5.000000e+00
5.000000e+00
5.000000e+00
5.000000e+00
5.000000e+00
5.000000e+00
5.000000e+00
5.000000e+00
5.000000e+00
1.250000e+00
7.812500e-01
7.226562e-01
7.153320e-01
7.144165e-01
7.143021e-01
7.142878e-01
7.142860e-01
7.142857e-01
7.142857e-01
7.142857e-01
7.142857e-01
7.142857e-01
7.142857e-01
7.142857e-01
7.142857e-01
7.142857e-01
7.142857e-01
7.142857e-01
5.000000e+00
5.000000e+00
7.812500e-01
1.250000e-01
6.484375e-02
6.131510e-02
6.122385e-02
6.122583e-02
6.122495e-02
6.122457e-02
6.122450e-02
6.122449e-02
6.122449e-02
6.122449e-02
6.122449e-02
6.122449e-02
6.122449e-02
6.122449e-02
6.122449e-02
6.122449e-02
9.693878e-02
5.000000e+00
5.000000e+00
7.226562e-01
6.484375e-02
5.247396e-03
2.373535e-03
2.482452e-03
2.522141e-03
2.526527e-03
2.526746e-03
2.526731e-03
2.526726e-03
2.526725e-03
2.526725e-03
2.526725e-03
2.526725e-03
2.526725e-03
2.526725e-03
2.526725e-03
2.526725e-03
1.243319e-02
5.000000e+00
5.000000e+00
7.153320e-01
6.131510e-02
2.373535e-03
-3.889757e-04
-2.508480e-04
-2.041347e-04
-1.984652e-04
-1.980663e-04
-1.980617e-04
-1.980650e-04
-1.980656e-04
-1.980656e-04
-1.980656e-04
-1.980656e-04
-1.980656e-04
-1.980656e-04
-1.980656e-04
-1.980656e-04
1.529390e-03
5.000000e+00
5.000000e+00
7.144165e-01
6.122385e-02
2.482452e-03
-2.508480e-04
-1.082670e-04
-6.058101e-05
-5.469166e-05
-5.425243e-05
-5.424221e-05
-5.424491e-05
-5.424542e-05
-5.424547e-05
-5.424548e-05
-5.424548e-05
-5.424548e-05
-5.424548e-05
-5.424548e-05
-5.424548e-05
1.843931e-04
5.000000e+00
5.000000e+00
7.143021e-01
6.122583e-02
2.522141e-03
-2.041347e-04
-6.058101e-05
-1.275269e-05
-6.833862e-06
-6.388014e-06
-6.376567e-06
-6.379088e-06
-6.379583e-06
-6.379635e-06
-6.379638e-06
-6.379638e-06
-6.379638e-06
-6.379638e-06
-6.379638e-06
-6.379638e-06
2.225168e-05
5.000000e+00
5.000000e+00
7.142878e-01
6.122495e-02
2.526527e-03
-1.984652e-04
-5.469166e-05
-6.833862e-06
-9.108354e-07
-4.641275e-07
-4.524839e-07
-4.549676e-07
-4.554576e-07
-4.555087e-07
-4.555118e-07
-4.555118e-07
-4.555117e-07
-4.555117e-07
-4.555117e-07
-4.555117e-07
2.724521e-06
5.000000e+00
5.000000e+00
7.142860e-01
6.122457e-02
2.526746e-03
-1.980663e-04
-5.425243e-05
-6.388014e-06
-4.641275e-07
-1.730044e-08
-5.632121e-09
-8.110063e-09
-8.598892e-09
-8.649799e-09
-8.652903e-09
-8.652891e-09
-8.652860e-09
-8.652855e-09
-8.652855e-09
-8.652855e-09
3.394836e-07
5.000000e+00
5.000000e+00
7.142857e-01
6.122450e-02
2.526731e-03
-1.980617e-04
-5.424221e-05
-6.376567e-06
-4.524839e-07
-5.632121e-09
6.039499e-09
3.562256e-09
3.073599e-09
3.022727e-09
3.019628e-09
3.019640e-09
3.019672e-09
3.019676e-09
3.019677e-09
3.019677e-09
4.281290e-08
5.000000e+00
5.000000e+00
7.142857e-01
6.122449e-02
2.526726e-03
-1.980650e-04
-5.424491e-05
-6.379088e-06
-4.549676e-07
-8.110063e-09
3.562256e-09
1.085103e-09
5.964656e-10
5.455981e-10
5.425005e-10
5.425129e-10
5.425443e-10
5.425489e-10
5.425493e-10
5.425494e-10
5.419432e-09
5.000000e+00
5.000000e+00
7.142857e-01
6.122449e-02
2.526725e-03
-1.980656e-04
-5.424542e-05
-6.379583e-06
-4.554576e-07
-8.598892e-09
3.073599e-09
5.964656e-10
1.078308e-10
5.696392e-11
5.386643e-11
5.387887e-11
5.391027e-11
5.391493e-11
5.391534e-11
5.391536e-11
6.841684e-10
5.000000e+00
5.000000e+00
7.142857e-01
6.122449e-02
2.526725e-03
-1.980656e-04
-5.424547e-05
-6.379635e-06
-4.555087e-07
-8.649799e-09
3.022727e-09
5.455981e-10
5.696392e-11
6.097078e-12
2.999597e-12
3.012046e-12
3.043443e-12
3.048109e-12
3.048521e-12
3.048539e-12
8.590212e-11
5.000000e+00
5.000000e+00
7.142857e-01
6.122449e-02
2.526725e-03
-1.980656e-04
-5.424548e-05
-6.379638e-06
-4.555118e-07
-8.652903e-09
3.019628e-09
5.425005e-10
5.386643e-11
2.999597e-12
-9.788113e-14
-8.543188e-14
-5.403507e-14
-4.936936e-14
-4.895741e-14
-4.893908e-14
1.073165e-11
5.000000e+00
5.000000e+00
7.142857e-01
6.122449e-02
2.526725e-03
-1.980656e-04
-5.424548e-05
-6.379638e-06
-4.555118e-07
-8.652891e-09
3.019640e-09
5.425129e-10
5.387887e-11
3.012046e-12
-8.543188e-14
-7.298261e-14
-4.158578e-14
-3.692007e-14
-3.650812e-14
-3.648978e-14
1.336895e-12
5.000000e+00
5.000000e+00
7.142857e-01
6.122449e-02
2.526725e-03
-1.980656e-04
-5.424548e-05
-6.379638e-06
-4.555117e-07
-8.652860e-09
3.019672e-09
5.425443e-10
5.391027e-11
3.043443e-12
-5.403507e-14
-4.158578e-14
-1.018896e-14
-5.523244e-15
-5.111296e-15
-5.092958e-15
1.664752e-13
5.000000e+00
5.000000e+00
7.142857e-01
6.122449e-02
2.526725e-03
-1.980656e-04
-5.424548e-05
-6.379638e-06
-4.555117e-07
-8.652855e-09
3.019676e-09
5.425489e-10
5.391493e-11
3.048109e-12
-4.936936e-14
-3.692007e-14
-5.523244e-15
-8.575306e-16
-4.455821e-16
-4.272444e-16
2.075600e-14
5.000000e+00
5.000000e+00
7.142857e-01
6.122449e-02
2.526725e-03
-1.980656e-04
-5.424548e-05
-6.379638e-06
-4.555117e-07
-8.652855e-09
3.019677e-09
5.425493e-10
5.391534e-11
3.048521e-12
-4.895741e-14
-3.650812e-14
-5.111296e-15
-4.455821e-16
-3.363364e-17
-1.529590e-17
2.592588e-15
5.000000e+00
5.000000e+00
7.142857e-01
6.122449e-02
2.526725e-03
-1.980656e-04
-5.424548e-05
-6.379638e-06
-4.555117e-07
-8.652855e-09
3.019677e-09
5.425494e-10
5.391536e-11
3.048539e-12
-4.893908e-14
-3.648978e-14
-5.092958e-15
-4.272444e-16
-1.529590e-17
3.041832e-18
3.244537e-16
5.000000e+00
5.000000e+00
7.142857e-01
9.693878e-02
1.243319e-02
1.529390e-03
1.843931e-04
2.225168e-05
2.724521e-06
3.394836e-07
4.281290e-08
5.419432e-09
6.841684e-10
8.590212e-11
1.073165e-11
1.336895e-12
1.664752e-13
2.075600e-14
2.592588e-15
3.244537e-16
8.111342e-17
5.000000e+00
5.000000e+00
5.078217e+00
5.154508e+00
5.226995e+00
5.293893e+00
5.353553e+00
5.404508e+00
5.445503e+00
5.475528e+00
5.493844e+00
5.500000e+00
5.493844e+00
5.475528e+00
5.445503e+00
5.404508e+00
5.353553e+00
5.293893e+00
5.226995e+00
5.154508e+00
5.078217e+00
5.000000e+00
