# vtk DataFile Version 3.0
steady_diffusion_2D_improved
ASCII
DATASET STRUCTURED_POINTS
DIMENSIONS 11 11 1
ORIGIN 0.0 0.0 0.0
SPACING 0.1 0.1 1.0
POINT_DATA 121
SCALARS Temperature double 1
LOOKUP_TABLE default
5.000000e+00
5.000000e+00
5.000000e+00
5.000000e+00
5.000000e+00
5.000000e+00
5.000000e+00
5.000000e+00
5.000000e+00
5.000000e+00
5.000000e+00
5.000000e+00
1.250000e+00
7.812500e-01
7.226562e-01
7.153320e-01
7.144165e-01
7.143021e-01
7.142878e-01
7.142860e-01
7.142857e-01
5.000000e+00
5.000000e+00
7.812500e-01
1.250000e-01
6.484375e-02
6.131510e-02
6.122385e-02
6.122583e-02
6.122495e-02
6.122457e-02
9.693879e-02
5.000000e+00
5.000000e+00
7.226562e-01
6.484375e-02
5.247396e-03
2.373535e-03
2.482452e-03
2.522141e-03
2.526527e-03
2.526746e-03
1.243319e-02
5.000000e+00
5.000000e+00
7.153320e-01
6.131510e-02
2.373535e-03
-3.889757e-04
-2.508480e-04
-2.041347e-04
-1.984652e-04
-1.980663e-04
1.529391e-03
5.000000e+00
5.000000e+00
7.144165e-01
6.122385e-02
2.482452e-03
-2.508480e-04
-1.082670e-04
-6.058101e-05
-5.469166e-05
-5.425243e-05
1.843923e-04
5.000000e+00
5.000000e+00
7.143021e-01
6.122583e-02
2.522141e-03
-2.041347e-04
-6.058101e-05
-1.275269e-05
-6.833862e-06
-6.388014e-06
2.225053e-05
5.000000e+00
5.000000e+00
7.142878e-01
6.122495e-02
2.526527e-03
-1.984652e-04
-5.469166e-05
-6.833862e-06
-9.108354e-07
-4.641275e-07
2.723301e-06
5.000000e+00
5.000000e+00
7.142860e-01
6.122457e-02
2.526746e-03
-1.980663e-04
-5.425243e-05
-6.388014e-06
-4.641275e-07
-1.730044e-08
3.382500e-07
5.000000e+00
5.000000e+00
7.142857e-01
9.693879e-02
1.243319e-02
1.529391e-03
1.843923e-04
2.225053e-05
2.723301e-06
3.382500e-07
8.456251e-08
5.000000e+00
5.000000e+00
5.154508e+00
5.293893e+00
5.404508e+00
5.475528e+00
5.500000e+00
5.475528e+00
5.404508e+00
5.293893e+00
5.154508e+00
5.000000e+00
