# vtk DataFile Version 3.0
9 points difference shceme(2-order bound)_
ASCII
DATASET STRUCTURED_POINTS
DIMENSIONS 41 41 1
ORIGIN 0.0 0.0 0.0
SPACING 0.025 0.025 1.0
POINT_DATA 1681
SCALARS Temperature double 1
LOOKUP_TABLE default
8.000000e+000
8.000000e+000
8.000000e+000
8.000000e+000
8.000000e+000
8.000000e+000
8.000000e+000
8.000000e+000
8.000000e+000
8.000000e+000
8.000000e+000
8.000000e+000
8.000000e+000
8.000000e+000
8.000000e+000
8.000000e+000
8.000000e+000
8.000000e+000
8.000000e+000
8.000000e+000
8.000000e+000
8.000000e+000
8.000000e+000
8.000000e+000
8.000000e+000
8.000000e+000
8.000000e+000
8.000000e+000
8.000000e+000
8.000000e+000
8.000000e+000
8.000000e+000
8.000000e+000
8.000000e+000
8.000000e+000
8.000000e+000
8.000000e+000
8.000000e+000
8.000000e+000
8.000000e+000
8.000000e+000
8.000000e+000
3.200000e+000
2.240000e+000
2.048000e+000
2.009600e+000
2.001920e+000
2.000384e+000
2.000077e+000
2.000015e+000
2.000003e+000
2.000001e+000
2.000000e+000
2.000000e+000
2.000000e+000
2.000000e+000
2.000000e+000
2.000000e+000
2.000000e+000
2.000000e+000
2.000000e+000
2.000000e+000
2.000000e+000
2.000000e+000
2.000000e+000
2.000000e+000
2.000000e+000
2.000000e+000
2.000000e+000
2.000000e+000
2.000000e+000
2.000000e+000
2.000000e+000
2.000000e+000
2.000000e+000
2.000000e+000
2.000000e+000
2.000000e+000
2.000000e+000
2.000000e+000
2.000000e+000
8.000000e+000
8.000000e+000
2.240000e+000
9.267200e-001
6.459392e-001
5.868831e-001
5.746079e-001
5.720786e-001
5.715608e-001
5.714554e-001
5.714340e-001
5.714297e-001
5.714288e-001
5.714286e-001
5.714286e-001
5.714286e-001
5.714286e-001
5.714286e-001
5.714286e-001
5.714286e-001
5.714286e-001
5.714286e-001
5.714286e-001
5.714286e-001
5.714286e-001
5.714286e-001
5.714286e-001
5.714286e-001
5.714286e-001
5.714286e-001
5.714286e-001
5.714286e-001
5.714286e-001
5.714286e-001
5.714286e-001
5.714286e-001
5.714286e-001
5.714286e-001
5.714286e-001
5.714286e-001
5.142857e-001
8.000000e+000
8.000000e+000
2.048000e+000
5.913928e-001
2.585172e-001
1.840859e-001
1.677495e-001
1.642192e-001
1.634662e-001
1.633072e-001
1.632740e-001
1.632671e-001
1.632657e-001
1.632654e-001
1.632653e-001
1.632653e-001
1.632653e-001
1.632653e-001
1.632653e-001
1.632653e-001
1.632653e-001
1.632653e-001
1.632653e-001
1.632653e-001
1.632653e-001
1.632653e-001
1.632653e-001
1.632653e-001
1.632653e-001
1.632653e-001
1.632653e-001
1.632653e-001
1.632653e-001
1.632653e-001
1.632653e-001
1.632653e-001
1.632653e-001
1.632653e-001
1.632653e-001
1.609796e-001
1.350531e-001
8.000000e+000
8.000000e+000
2.009600e+000
5.084195e-001
1.537290e-001
7.110106e-002
5.214829e-002
4.786743e-002
4.691443e-002
4.670507e-002
4.665963e-002
4.664986e-002
4.664778e-002
4.664735e-002
4.664725e-002
4.664724e-002
4.664723e-002
4.664723e-002
4.664723e-002
4.664723e-002
4.664723e-002
4.664723e-002
4.664723e-002
4.664723e-002
4.664723e-002
4.664723e-002
4.664723e-002
4.664723e-002
4.664723e-002
4.664723e-002
4.664723e-002
4.664723e-002
4.664723e-002
4.664723e-002
4.664723e-002
4.664723e-002
4.664723e-002
4.664723e-002
4.655580e-002
4.513840e-002
3.603829e-002
8.000000e+000
8.000000e+000
2.001920e+000
4.881875e-001
1.258875e-001
3.975326e-002
1.946299e-002
1.473538e-002
1.364687e-002
1.339927e-002
1.334362e-002
1.333125e-002
1.332853e-002
1.332794e-002
1.332781e-002
1.332779e-002
1.332778e-002
1.332778e-002
1.332778e-002
1.332778e-002
1.332778e-002
1.332778e-002
1.332778e-002
1.332778e-002
1.332778e-002
1.332778e-002
1.332778e-002
1.332778e-002
1.332778e-002
1.332778e-002
1.332778e-002
1.332778e-002
1.332778e-002
1.332778e-002
1.332778e-002
1.332778e-002
1.332778e-002
1.332412e-002
1.325221e-002
1.264626e-002
9.736911e-003
8.000000e+000
8.000000e+000
2.000384e+000
4.832837e-001
1.185850e-001
3.114814e-002
1.027733e-002
5.326427e-003
4.161113e-003
3.889282e-003
3.826486e-003
3.812125e-003
3.808873e-003
3.808145e-003
3.807983e-003
3.807947e-003
3.807939e-003
3.807938e-003
3.807937e-003
3.807937e-003
3.807937e-003
3.807937e-003
3.807937e-003
3.807937e-003
3.807937e-003
3.807937e-003
3.807937e-003
3.807937e-003
3.807937e-003
3.807937e-003
3.807937e-003
3.807937e-003
3.807937e-003
3.807937e-003
3.807937e-003
3.807937e-003
3.807791e-003
3.804306e-003
3.767858e-003
3.545824e-003
2.656547e-003
8.000000e+000
8.000000e+000
2.000077e+000
4.820964e-001
1.166863e-001
2.880801e-002
7.712636e-003
2.663788e-003
1.460612e-003
1.175487e-003
1.108372e-003
1.092694e-003
1.089061e-003
1.088227e-003
1.088037e-003
1.087994e-003
1.087985e-003
1.087983e-003
1.087982e-003
1.087982e-003
1.087982e-003
1.087982e-003
1.087982e-003
1.087982e-003
1.087982e-003
1.087982e-003
1.087982e-003
1.087982e-003
1.087982e-003
1.087982e-003
1.087982e-003
1.087982e-003
1.087982e-003
1.087982e-003
1.087982e-003
1.087976e-003
1.087812e-003
1.085765e-003
1.070585e-003
9.956017e-004
7.304297e-004
8.000000e+000
8.000000e+000
2.000015e+000
4.818084e-001
1.161953e-001
2.817649e-002
7.001132e-003
1.913317e-003
6.933997e-004
4.017813e-004
3.323517e-004
3.159046e-004
3.120314e-004
3.111253e-004
3.109149e-004
3.108664e-004
3.108553e-004
3.108527e-004
3.108522e-004
3.108520e-004
3.108520e-004
3.108520e-004
3.108520e-004
3.108520e-004
3.108520e-004
3.108520e-004
3.108520e-004
3.108520e-004
3.108520e-004
3.108520e-004
3.108520e-004
3.108520e-004
3.108520e-004
3.108520e-004
3.108518e-004
3.108443e-004
3.107347e-004
3.097758e-004
3.041124e-004
2.799948e-004
2.020849e-004
8.000000e+000
8.000000e+000
2.000003e+000
4.817383e-001
1.160688e-001
2.800710e-002
6.804910e-003
1.702698e-003
4.759795e-004
1.814718e-004
1.109192e-004
9.406714e-005
9.005697e-005
8.910702e-005
8.888317e-005
8.883073e-005
8.881852e-005
8.881570e-005
8.881505e-005
8.881490e-005
8.881487e-005
8.881486e-005
8.881486e-005
8.881486e-005
8.881486e-005
8.881486e-005
8.881486e-005
8.881486e-005
8.881486e-005
8.881486e-005
8.881486e-005
8.881486e-005
8.881486e-005
8.881485e-005
8.881451e-005
8.880886e-005
8.875178e-005
8.835830e-005
8.638614e-005
7.886885e-005
5.619075e-005
8.000000e+000
8.000000e+000
2.000001e+000
4.817211e-001
1.160362e-001
2.796187e-002
6.751077e-003
1.643840e-003
4.145378e-004
1.188375e-004
4.778263e-005
3.073501e-005
2.665368e-005
2.567932e-005
2.544751e-005
2.539259e-005
2.537963e-005
2.537660e-005
2.537589e-005
2.537572e-005
2.537569e-005
2.537568e-005
2.537568e-005
2.537567e-005
2.537567e-005
2.537567e-005
2.537567e-005
2.537567e-005
2.537567e-005
2.537567e-005
2.537567e-005
2.537567e-005
2.537567e-005
2.537566e-005
2.537538e-005
2.537213e-005
2.534651e-005
2.519829e-005
2.454259e-005
2.224891e-005
1.568793e-005
8.000000e+000
8.000000e+000
2.000000e+000
4.817169e-001
1.160278e-001
2.794984e-002
6.736375e-003
1.627459e-003
3.972266e-004
1.010631e-004
2.979821e-005
1.266277e-005
8.547205e-006
7.560291e-006
7.324124e-006
7.267759e-006
7.254350e-006
7.251172e-006
7.250422e-006
7.250246e-006
7.250205e-006
7.250196e-006
7.250193e-006
7.250193e-006
7.250193e-006
7.250193e-006
7.250193e-006
7.250193e-006
7.250193e-006
7.250193e-006
7.250193e-006
7.250193e-006
7.250192e-006
7.250178e-006
7.250000e-006
7.248416e-006
7.238005e-006
7.185371e-006
6.974362e-006
6.284944e-006
4.394575e-006
8.000000e+000
8.000000e+000
2.000000e+000
4.817158e-001
1.160256e-001
2.794665e-002
6.732375e-003
1.622918e-003
3.923639e-004
9.602931e-005
2.468144e-005
7.508889e-006
3.377897e-006
2.384963e-006
2.146576e-006
2.089433e-006
2.075763e-006
2.072501e-006
2.071724e-006
2.071540e-006
2.071497e-006
2.071487e-006
2.071484e-006
2.071484e-006
2.071484e-006
2.071484e-006
2.071484e-006
2.071484e-006
2.071484e-006
2.071484e-006
2.071484e-006
2.071484e-006
2.071483e-006
2.071473e-006
2.071380e-006
2.070688e-006
2.066742e-006
2.048833e-006
1.982524e-006
1.777552e-006
1.234425e-006
8.000000e+000
8.000000e+000
2.000000e+000
4.817156e-001
1.160251e-001
2.794580e-002
6.731290e-003
1.621663e-003
3.910022e-004
9.460685e-005
2.322765e-005
6.040220e-006
1.902653e-006
9.069975e-007
6.675476e-007
6.100104e-007
5.962010e-007
5.928917e-007
5.921002e-007
5.919114e-007
5.918664e-007
5.918558e-007
5.918532e-007
5.918526e-007
5.918525e-007
5.918525e-007
5.918525e-007
5.918525e-007
5.918525e-007
5.918525e-007
5.918525e-007
5.918524e-007
5.918519e-007
5.918466e-007
5.918026e-007
5.915233e-007
5.901033e-007
5.842004e-007
5.637313e-007
5.032833e-007
3.475418e-007
8.000000e+000
8.000000e+000
2.000000e+000
4.817155e-001
1.160249e-001
2.794557e-002
6.730997e-003
1.621317e-003
3.906219e-004
9.420579e-005
2.281523e-005
5.622085e-006
1.481847e-006
4.850231e-007
2.450916e-007
1.873663e-007
1.734868e-007
1.701526e-007
1.693526e-007
1.691609e-007
1.691151e-007
1.691041e-007
1.691015e-007
1.691009e-007
1.691008e-007
1.691007e-007
1.691007e-007
1.691007e-007
1.691007e-007
1.691007e-007
1.691007e-007
1.691007e-007
1.691004e-007
1.690977e-007
1.690788e-007
1.689726e-007
1.684811e-007
1.665824e-007
1.603495e-007
1.426322e-007
9.803479e-008
8.000000e+000
8.000000e+000
2.000000e+000
4.817155e-001
1.160249e-001
2.794552e-002
6.730918e-003
1.621222e-003
3.905160e-004
9.409297e-005
2.269843e-005
5.503165e-006
1.361886e-006
3.645830e-007
1.244435e-007
6.663271e-008
5.271988e-008
4.937318e-008
4.856866e-008
4.837543e-008
4.832908e-008
4.831797e-008
4.831532e-008
4.831468e-008
4.831453e-008
4.831450e-008
4.831449e-008
4.831449e-008
4.831449e-008
4.831449e-008
4.831449e-008
4.831447e-008
4.831431e-008
4.831309e-008
4.830552e-008
4.826689e-008
4.810188e-008
4.750271e-008
4.562495e-008
4.045651e-008
2.769826e-008
8.000000e+000
8.000000e+000
2.000000e+000
4.817155e-001
1.160249e-001
2.794550e-002
6.730896e-003
1.621196e-003
3.904866e-004
9.406131e-005
2.266540e-005
5.469384e-006
1.327713e-006
3.302206e-007
8.999489e-008
3.214695e-008
1.821893e-008
1.486628e-008
1.405953e-008
1.386550e-008
1.381887e-008
1.380767e-008
1.380498e-008
1.380434e-008
1.380419e-008
1.380415e-008
1.380414e-008
1.380414e-008
1.380414e-008
1.380414e-008
1.380414e-008
1.380413e-008
1.380405e-008
1.380354e-008
1.380065e-008
1.378710e-008
1.373302e-008
1.354679e-008
1.298585e-008
1.148371e-008
7.836393e-009
8.000000e+000
8.000000e+000
2.000000e+000
4.817155e-001
1.160249e-001
2.794550e-002
6.730891e-003
1.621189e-003
3.904784e-004
9.405244e-005
2.265608e-005
5.459799e-006
1.317986e-006
3.204214e-007
8.016131e-008
2.229787e-008
8.363218e-009
5.007858e-009
4.200054e-009
4.005626e-009
3.958846e-009
3.947597e-009
3.944894e-009
3.944244e-009
3.944089e-009
3.944051e-009
3.944043e-009
3.944040e-009
3.944040e-009
3.944040e-009
3.944039e-009
3.944035e-009
3.944001e-009
3.943794e-009
3.942736e-009
3.938121e-009
3.920738e-009
3.863559e-009
3.697125e-009
3.261823e-009
2.219643e-009
8.000000e+000
8.000000e+000
2.000000e+000
4.817155e-001
1.160249e-001
2.794549e-002
6.730889e-003
1.621187e-003
3.904762e-004
9.404996e-005
2.265346e-005
5.457084e-006
1.315220e-006
3.176285e-007
7.735514e-008
1.948546e-008
5.548018e-009
2.191471e-009
1.383183e-009
1.188565e-009
1.141715e-009
1.130439e-009
1.127727e-009
1.127075e-009
1.126918e-009
1.126880e-009
1.126871e-009
1.126869e-009
1.126869e-009
1.126869e-009
1.126868e-009
1.126866e-009
1.126852e-009
1.126773e-009
1.126398e-009
1.124862e-009
1.119363e-009
1.101982e-009
1.052872e-009
9.270219e-010
6.293330e-010
8.000000e+000
8.000000e+000
2.000000e+000
4.817155e-001
1.160249e-001
2.794549e-002
6.730889e-003
1.621187e-003
3.904756e-004
9.404927e-005
2.265272e-005
5.456315e-006
1.314434e-006
3.168330e-007
7.655467e-008
1.868255e-008
4.743968e-009
1.386918e-009
5.784177e-010
3.837132e-010
3.368287e-010
3.255406e-010
3.228234e-010
3.221695e-010
3.220122e-010
3.219744e-010
3.219653e-010
3.219631e-010
3.219626e-010
3.219625e-010
3.219623e-010
3.219613e-010
3.219557e-010
3.219265e-010
3.217973e-010
3.212960e-010
3.195792e-010
3.143393e-010
2.999140e-010
2.635980e-010
1.785862e-010
8.000000e+000
8.000000e+000
2.000000e+000
4.817155e-001
1.160249e-001
2.794549e-002
6.730888e-003
1.621187e-003
3.904754e-004
9.404908e-005
2.265251e-005
5.456098e-006
1.314211e-006
3.166066e-007
7.632643e-008
1.845338e-008
4.514354e-009
1.157099e-009
3.485079e-010
1.537652e-010
1.068652e-010
9.557100e-011
9.285150e-011
9.219678e-011
9.203919e-011
9.200127e-011
9.199215e-011
9.198996e-011
9.198943e-011
9.198930e-011
9.198921e-011
9.198880e-011
9.198663e-011
9.197623e-011
9.193267e-011
9.177164e-011
9.124155e-011
8.967266e-011
8.545136e-011
7.498790e-011
5.071482e-011
8.000000e+000
8.000000e+000
2.000000e+000
4.817155e-001
1.160249e-001
2.794549e-002
6.730888e-003
1.621187e-003
3.904753e-004
9.404902e-005
2.265245e-005
5.456037e-006
1.314148e-006
3.165422e-007
7.626138e-008
1.838799e-008
4.448795e-009
1.091458e-009
2.828290e-010
8.807001e-011
4.116308e-011
2.986612e-011
2.714553e-011
2.649040e-011
2.633266e-011
2.629468e-011
2.628554e-011
2.628334e-011
2.628281e-011
2.628268e-011
2.628263e-011
2.628246e-011
2.628166e-011
2.627803e-011
2.626363e-011
2.621261e-011
2.605044e-011
2.558341e-011
2.435199e-011
2.134103e-011
1.441117e-011
8.000000e+000
8.000000e+000
2.000000e+000
4.817155e-001
1.160249e-001
2.794549e-002
6.730888e-003
1.621187e-003
3.904753e-004
9.404901e-005
2.265244e-005
5.456020e-006
1.314130e-006
3.165239e-007
7.624286e-008
1.836934e-008
4.430080e-009
1.072711e-009
2.640675e-010
6.930169e-011
2.239181e-011
1.109361e-011
8.372524e-012
7.717195e-012
7.559379e-012
7.521378e-012
7.512228e-012
7.510026e-012
7.509495e-012
7.509366e-012
7.509325e-012
7.509257e-012
7.508966e-012
7.507731e-012
7.503043e-012
7.487067e-012
7.437842e-012
7.299498e-012
6.941215e-012
6.075685e-012
4.097371e-012
8.000000e+000
8.000000e+000
2.000000e+000
4.817155e-001
1.160249e-001
2.794549e-002
6.730888e-003
1.621187e-003
3.904753e-004
9.404900e-005
2.265243e-005
5.456015e-006
1.314125e-006
3.165187e-007
7.623758e-008
1.836403e-008
4.424739e-009
1.067358e-009
2.587086e-010
6.394001e-011
1.702890e-011
5.730176e-012
3.008864e-012
2.353446e-012
2.195595e-012
2.157580e-012
2.148425e-012
2.146221e-012
2.145690e-012
2.145562e-012
2.145527e-012
2.145497e-012
2.145394e-012
2.144980e-012
2.143476e-012
2.138522e-012
2.123681e-012
2.082871e-012
1.978861e-012
1.730271e-012
1.165528e-012
8.000000e+000
8.000000e+000
2.000000e+000
4.817155e-001
1.160249e-001
2.794549e-002
6.730888e-003
1.621187e-003
3.904753e-004
9.404900e-005
2.265243e-005
5.456013e-006
1.314123e-006
3.165173e-007
7.623608e-008
1.836251e-008
4.423215e-009
1.065830e-009
2.571780e-010
6.240839e-011
1.549677e-011
4.197823e-012
1.476415e-012
8.209560e-013
6.630892e-013
6.250679e-013
6.159110e-013
6.137058e-013
6.131747e-013
6.130465e-013
6.130141e-013
6.129986e-013
6.129618e-013
6.128255e-013
6.123483e-013
6.108256e-013
6.063768e-013
5.943813e-013
5.642444e-013
4.928980e-013
3.316853e-013
8.000000e+000
8.000000e+000
2.000000e+000
4.817155e-001
1.160249e-001
2.794549e-002
6.730888e-003
1.621187e-003
3.904753e-004
9.404900e-005
2.265243e-005
5.456013e-006
1.314123e-006
3.165168e-007
7.623566e-008
1.836208e-008
4.422781e-009
1.065393e-009
2.567409e-010
6.197088e-011
1.505907e-011
3.760031e-012
1.038582e-012
3.831063e-013
2.252322e-013
1.872080e-013
1.780500e-013
1.758443e-013
1.753131e-013
1.751851e-013
1.751537e-013
1.751434e-013
1.751298e-013
1.750853e-013
1.749354e-013
1.744708e-013
1.731439e-013
1.696289e-013
1.609109e-013
1.404466e-013
9.442638e-014
8.000000e+000
8.000000e+000
2.000000e+000
4.817155e-001
1.160249e-001
2.794549e-002
6.730888e-003
1.621187e-003
3.904753e-004
9.404900e-005
2.265243e-005
5.456013e-006
1.314123e-006
3.165167e-007
7.623554e-008
1.836196e-008
4.422657e-009
1.065269e-009
2.566161e-010
6.184593e-011
1.493404e-011
3.634957e-012
9.134918e-013
2.580083e-013
1.001311e-013
6.210554e-014
5.294698e-014
5.074114e-014
5.020986e-014
5.008187e-014
5.005083e-014
5.004242e-014
5.003670e-014
5.002212e-014
4.997545e-014
4.983456e-014
4.944054e-014
4.841330e-014
4.589489e-014
4.002813e-014
2.689090e-014
8.000000e+000
8.000000e+000
2.000000e+000
4.817155e-001
1.160249e-001
2.794549e-002
6.730888e-003
1.621187e-003
3.904753e-004
9.404900e-005
2.265243e-005
5.456013e-006
1.314123e-006
3.165167e-007
7.623550e-008
1.836192e-008
4.422621e-009
1.065233e-009
2.565805e-010
6.181024e-011
1.489832e-011
3.599225e-012
8.777534e-013
2.222668e-013
6.438821e-014
2.636212e-014
1.720332e-014
1.499739e-014
1.446608e-014
1.433810e-014
1.430720e-014
1.429944e-014
1.429636e-014
1.429144e-014
1.427697e-014
1.423448e-014
1.411792e-014
1.381841e-014
1.309179e-014
1.141062e-014
7.660304e-015
8.000000e+000
8.000000e+000
2.000000e+000
4.817155e-001
1.160249e-001
2.794549e-002
6.730888e-003
1.621187e-003
3.904753e-004
9.404900e-005
2.265243e-005
5.456013e-006
1.314123e-006
3.165167e-007
7.623549e-008
1.836191e-008
4.422611e-009
1.065223e-009
2.565703e-010
6.180005e-011
1.488812e-011
3.589018e-012
8.675430e-013
2.120552e-013
5.417611e-014
1.614978e-014
6.990877e-015
4.784898e-015
4.253576e-015
4.125599e-015
4.094749e-015
4.087213e-015
4.085008e-015
4.083166e-015
4.078659e-015
4.065898e-015
4.031526e-015
3.944378e-015
3.734947e-015
3.253374e-015
2.182736e-015
8.000000e+000
8.000000e+000
2.000000e+000
4.817155e-001
1.160249e-001
2.794549e-002
6.730888e-003
1.621187e-003
3.904753e-004
9.404900e-005
2.265243e-005
5.456013e-006
1.314123e-006
3.165167e-007
7.623549e-008
1.836191e-008
4.422608e-009
1.065220e-009
2.565674e-010
6.179714e-011
1.488520e-011
3.586102e-012
8.646261e-013
2.091378e-013
5.125842e-014
1.323199e-014
4.073046e-015
1.867049e-015
1.335720e-015
1.207744e-015
1.176911e-015
1.169450e-015
1.167528e-015
1.166658e-015
1.165213e-015
1.161385e-015
1.151277e-015
1.125964e-015
1.065656e-015
9.277521e-016
6.220976e-016
8.000000e+000
8.000000e+000
2.000000e+000
4.817155e-001
1.160249e-001
2.794549e-002
6.730888e-003
1.621187e-003
3.904753e-004
9.404900e-005
2.265243e-005
5.456013e-006
1.314123e-006
3.165167e-007
7.623549e-008
1.836191e-008
4.422608e-009
1.065220e-009
2.565666e-010
6.179631e-011
1.488437e-011
3.585269e-012
8.637928e-013
2.083043e-013
5.042482e-014
1.239835e-014
3.239385e-015
1.033380e-015
5.020477e-016
3.740719e-016
3.432451e-016
3.358088e-016
3.339783e-016
3.334114e-016
3.329017e-016
3.317455e-016
3.287776e-016
3.214359e-016
3.040833e-016
2.646038e-016
1.773403e-016
8.000000e+000
8.000000e+000
2.000000e+000
4.817155e-001
1.160249e-001
2.794549e-002
6.730888e-003
1.621187e-003
3.904753e-004
9.404900e-005
2.265243e-005
5.456013e-006
1.314123e-006
3.165167e-007
7.623549e-008
1.836191e-008
4.422607e-009
1.065219e-009
2.565664e-010
6.179607e-011
1.488413e-011
3.585031e-012
8.635547e-013
2.080661e-013
5.018666e-014
1.216017e-014
3.001198e-015
7.951898e-016
2.638561e-016
1.358802e-016
1.050553e-016
9.762719e-017
9.582568e-017
9.535313e-017
9.512704e-017
9.476678e-017
9.389435e-017
9.176728e-017
8.677769e-017
7.547798e-017
5.056365e-017
8.000000e+000
8.000000e+000
2.000000e+000
4.817155e-001
1.160249e-001
2.794549e-002
6.730888e-003
1.621187e-003
3.904753e-004
9.404900e-005
2.265243e-005
5.456013e-006
1.314123e-006
3.165167e-007
7.623549e-008
1.836191e-008
4.422607e-009
1.065219e-009
2.565663e-010
6.179600e-011
1.488407e-011
3.584963e-012
8.634867e-013
2.079981e-013
5.011862e-014
1.209212e-014
2.933145e-015
7.271357e-016
1.958015e-016
6.782552e-017
3.700122e-017
2.957579e-017
2.778345e-017
2.733996e-017
2.719952e-017
2.707546e-017
2.681653e-017
2.620029e-017
2.476629e-017
2.153274e-017
1.441928e-017
8.000000e+000
8.000000e+000
2.000000e+000
4.817155e-001
1.160249e-001
2.794549e-002
6.730888e-003
1.621187e-003
3.904753e-004
9.404900e-005
2.265243e-005
5.456013e-006
1.314123e-006
3.165167e-007
7.623549e-008
1.836191e-008
4.422607e-009
1.065219e-009
2.565663e-010
6.179598e-011
1.488405e-011
3.584944e-012
8.634673e-013
2.079787e-013
5.009918e-014
1.207268e-014
2.913702e-015
7.076919e-016
1.763574e-016
4.838137e-017
1.755727e-017
1.013268e-017
8.343210e-018
7.908626e-018
7.793920e-018
7.739743e-018
7.660034e-018
7.480965e-018
7.068881e-018
6.143682e-018
4.112592e-018
8.000000e+000
8.000000e+000
2.000000e+000
4.817155e-001
1.160249e-001
2.794549e-002
6.730888e-003
1.621187e-003
3.904753e-004
9.404900e-005
2.265243e-005
5.456013e-006
1.314123e-006
3.165167e-007
7.623549e-008
1.836191e-008
4.422607e-009
1.065219e-009
2.565663e-010
6.179598e-011
1.488404e-011
3.584938e-012
8.634617e-013
2.079731e-013
5.009362e-014
1.206712e-014
2.908147e-015
7.021366e-016
1.708020e-016
4.282592e-017
1.200187e-017
4.577547e-018
2.788973e-018
2.357101e-018
2.250098e-018
2.216533e-018
2.189079e-018
2.136364e-018
2.017825e-018
1.753100e-018
1.173138e-018
8.000000e+000
8.000000e+000
2.000000e+000
4.817155e-001
1.160249e-001
2.794549e-002
6.730888e-003
1.621187e-003
3.904753e-004
9.404900e-005
2.265243e-005
5.456013e-006
1.314123e-006
3.165167e-007
7.623549e-008
1.836191e-008
4.422607e-009
1.065219e-009
2.565663e-010
6.179597e-011
1.488404e-011
3.584936e-012
8.634601e-013
2.079715e-013
5.009204e-014
1.206554e-014
2.906560e-015
7.005493e-016
1.692147e-016
4.123865e-017
1.041462e-017
2.990381e-018
1.202083e-018
7.710322e-019
6.663262e-019
6.388245e-019
6.265804e-019
6.103472e-019
5.760861e-019
5.003083e-019
3.346893e-019
8.000000e+000
8.000000e+000
2.000000e+000
4.817155e-001
1.160249e-001
2.794549e-002
6.730888e-003
1.621187e-003
3.904753e-004
9.404900e-005
2.265243e-005
5.456013e-006
1.314123e-006
3.165167e-007
7.623549e-008
1.836191e-008
4.422607e-009
1.065219e-009
2.565663e-010
6.179597e-011
1.488404e-011
3.584936e-012
8.634597e-013
2.079711e-013
5.009158e-014
1.206508e-014
2.906106e-015
7.000959e-016
1.687612e-016
4.078515e-017
9.961125e-018
2.536909e-018
7.486952e-019
3.178927e-019
2.138693e-019
1.881473e-019
1.803233e-019
1.746139e-019
1.645382e-019
1.428065e-019
9.549916e-020
8.000000e+000
8.000000e+000
2.000000e+000
4.817155e-001
1.160249e-001
2.794549e-002
6.730888e-003
1.621187e-003
3.904753e-004
9.404900e-005
2.265243e-005
5.456013e-006
1.314123e-006
3.165167e-007
7.623549e-008
1.836191e-008
4.422607e-009
1.065219e-009
2.565663e-010
6.179597e-011
1.488404e-011
3.584936e-012
8.634596e-013
2.079710e-013
5.009145e-014
1.206495e-014
2.905977e-015
6.999663e-016
1.686316e-016
4.065558e-017
9.831555e-018
2.407347e-018
6.191589e-019
1.884308e-019
8.460962e-020
5.940881e-020
5.286759e-020
5.019151e-020
4.705357e-020
4.077910e-020
2.725565e-020
8.000000e+000
8.000000e+000
2.000000e+000
4.817155e-001
1.160249e-001
2.794549e-002
6.730888e-003
1.621187e-003
3.904753e-004
9.404900e-005
2.265243e-005
5.456013e-006
1.314123e-006
3.165167e-007
7.623549e-008
1.836191e-008
4.422607e-009
1.065219e-009
2.565663e-010
6.179597e-011
1.488404e-011
3.584936e-012
8.634595e-013
2.079709e-013
5.009142e-014
1.206492e-014
2.905940e-015
6.999293e-016
1.685946e-016
4.061856e-017
9.794536e-018
2.370330e-018
5.821493e-019
1.514436e-019
4.768210e-020
2.263363e-020
1.646421e-020
1.466176e-020
1.351328e-020
1.165915e-020
7.782960e-021
8.000000e+000
8.000000e+000
2.000000e+000
4.963431e-001
1.224736e-001
3.008382e-002
7.362941e-003
1.796826e-003
4.374602e-004
1.063018e-004
2.579085e-005
6.249373e-006
1.512699e-006
3.658432e-007
8.841573e-008
2.135553e-008
5.155627e-009
1.244169e-009
3.001471e-010
7.238862e-011
1.745453e-011
4.207893e-012
1.014271e-012
2.444483e-013
5.890794e-014
1.419457e-014
3.420102e-015
8.240063e-016
1.985202e-016
4.782775e-017
1.152446e-017
2.778957e-018
6.722213e-019
1.647330e-019
4.248301e-020
1.302333e-020
5.897507e-021
4.111854e-021
3.525026e-021
3.036835e-021
2.163959e-021
8.000000e+000
8.000000e+000
8.062767e+000
8.125148e+000
8.186756e+000
8.247214e+000
8.306147e+000
8.363192e+000
8.417999e+000
8.470228e+000
8.519558e+000
8.565685e+000
8.608325e+000
8.647214e+000
8.682112e+000
8.712805e+000
8.739104e+000
8.760845e+000
8.777896e+000
8.790151e+000
8.797534e+000
8.800000e+000
8.797534e+000
8.790151e+000
8.777896e+000
8.760845e+000
8.739104e+000
8.712805e+000
8.682112e+000
8.647214e+000
8.608325e+000
8.565685e+000
8.519558e+000
8.470228e+000
8.417999e+000
8.363192e+000
8.306147e+000
8.247214e+000
8.186756e+000
8.125148e+000
8.062767e+000
8.000000e+000
