# vtk DataFile Version 3.0
9 points difference shceme(2-order bound)_
ASCII
DATASET STRUCTURED_POINTS
DIMENSIONS 11 11 1
ORIGIN 0.0 0.0 0.0
SPACING 0.1 0.1 1.0
POINT_DATA 121
SCALARS Temperature double 1
LOOKUP_TABLE default
5.000000e+000
5.000000e+000
5.000000e+000
5.000000e+000
5.000000e+000
5.000000e+000
5.000000e+000
5.000000e+000
5.000000e+000
5.000000e+000
5.000000e+000
5.000000e+000
1.250000e+000
7.812500e-001
7.226562e-001
7.153320e-001
7.144165e-001
7.143021e-001
7.142878e-001
7.142860e-001
7.142857e-001
5.000000e+000
5.000000e+000
7.812500e-001
2.055664e-001
1.302368e-001
1.204837e-001
1.192309e-001
1.190709e-001
1.190506e-001
1.190480e-001
1.041667e-001
5.000000e+000
5.000000e+000
7.226562e-001
1.156094e-001
3.273588e-002
2.155865e-002
2.006782e-002
1.987091e-002
1.984512e-002
1.946974e-002
1.545456e-002
5.000000e+000
5.000000e+000
7.153320e-001
1.019789e-001
1.690068e-002
5.166026e-003
3.559123e-003
3.340827e-003
3.302111e-003
3.159677e-003
2.326779e-003
5.000000e+000
5.000000e+000
7.144165e-001
9.994536e-002
1.436323e-002
2.464421e-003
8.150257e-004
5.871161e-004
5.514353e-004
5.118335e-004
3.548266e-004
5.000000e+000
5.000000e+000
7.143021e-001
9.964424e-002
1.396099e-002
2.021998e-003
3.599907e-004
1.288722e-004
9.550449e-005
8.339035e-005
5.477712e-005
5.000000e+000
5.000000e+000
7.142878e-001
9.959978e-002
1.389773e-002
1.949998e-003
2.847706e-004
5.275166e-005
2.013218e-005
1.410929e-005
8.610802e-006
5.000000e+000
5.000000e+000
7.142860e-001
9.959321e-002
1.388784e-002
1.938346e-003
2.723804e-004
4.013578e-005
7.698319e-006
2.899336e-006
1.438767e-006
5.000000e+000
5.000000e+000
7.142857e-001
1.017349e-001
1.445284e-002
2.048898e-003
2.901598e-004
4.128695e-005
6.123158e-006
1.127812e-006
3.208224e-007
5.000000e+000
5.000000e+000
5.154508e+000
5.293893e+000
5.404508e+000
5.475528e+000
5.500000e+000
5.475528e+000
5.404508e+000
5.293893e+000
5.154508e+000
5.000000e+000
