# vtk DataFile Version 3.0
9 points difference shceme(2-order bound)_
ASCII
DATASET STRUCTURED_POINTS
DIMENSIONS 81 81 1
ORIGIN 0.0 0.0 0.0
SPACING 0.0125 0.0125 1.0
POINT_DATA 6561
SCALARS Temperature double 1
LOOKUP_TABLE default
1.000000e+001
1.000000e+001
1.000000e+001
1.000000e+001
1.000000e+001
1.000000e+001
1.000000e+001
1.000000e+001
1.000000e+001
1.000000e+001
1.000000e+001
1.000000e+001
1.000000e+001
1.000000e+001
1.000000e+001
1.000000e+001
1.000000e+001
1.000000e+001
1.000000e+001
1.000000e+001
1.000000e+001
1.000000e+001
1.000000e+001
1.000000e+001
1.000000e+001
1.000000e+001
1.000000e+001
1.000000e+001
1.000000e+001
1.000000e+001
1.000000e+001
1.000000e+001
1.000000e+001
1.000000e+001
1.000000e+001
1.000000e+001
1.000000e+001
1.000000e+001
1.000000e+001
1.000000e+001
1.000000e+001
1.000000e+001
1.000000e+001
1.000000e+001
1.000000e+001
1.000000e+001
1.000000e+001
1.000000e+001
1.000000e+001
1.000000e+001
1.000000e+001
1.000000e+001
1.000000e+001
1.000000e+001
1.000000e+001
1.000000e+001
1.000000e+001
1.000000e+001
1.000000e+001
1.000000e+001
1.000000e+001
1.000000e+001
1.000000e+001
1.000000e+001
1.000000e+001
1.000000e+001
1.000000e+001
1.000000e+001
1.000000e+001
1.000000e+001
1.000000e+001
1.000000e+001
1.000000e+001
1.000000e+001
1.000000e+001
1.000000e+001
1.000000e+001
1.000000e+001
1.000000e+001
1.000000e+001
1.000000e+001
1.000000e+001
1.000013e+001
1.000027e+001
1.000040e+001
1.000053e+001
1.000066e+001
1.000079e+001
1.000092e+001
1.000105e+001
1.000118e+001
1.000130e+001
1.000142e+001
1.000154e+001
1.000166e+001
1.000178e+001
1.000189e+001
1.000200e+001
1.000211e+001
1.000221e+001
1.000231e+001
1.000240e+001
1.000250e+001
1.000259e+001
1.000267e+001
1.000275e+001
1.000283e+001
1.000290e+001
1.000297e+001
1.000303e+001
1.000309e+001
1.000314e+001
1.000319e+001
1.000323e+001
1.000327e+001
1.000331e+001
1.000334e+001
1.000336e+001
1.000338e+001
1.000339e+001
1.000340e+001
1.000340e+001
1.000340e+001
1.000339e+001
1.000338e+001
1.000336e+001
1.000334e+001
1.000331e+001
1.000327e+001
1.000323e+001
1.000319e+001
1.000314e+001
1.000309e+001
1.000303e+001
1.000297e+001
1.000290e+001
1.000283e+001
1.000275e+001
1.000267e+001
1.000259e+001
1.000250e+001
1.000240e+001
1.000231e+001
1.000221e+001
1.000211e+001
1.000200e+001
1.000189e+001
1.000178e+001
1.000166e+001
1.000154e+001
1.000142e+001
1.000130e+001
1.000118e+001
1.000105e+001
1.000092e+001
1.000079e+001
1.000066e+001
1.000053e+001
1.000040e+001
1.000027e+001
1.000013e+001
1.000000e+001
1.000000e+001
1.000027e+001
1.000053e+001
1.000080e+001
1.000106e+001
1.000133e+001
1.000159e+001
1.000185e+001
1.000210e+001
1.000236e+001
1.000260e+001
1.000285e+001
1.000309e+001
1.000333e+001
1.000356e+001
1.000378e+001
1.000400e+001
1.000421e+001
1.000442e+001
1.000462e+001
1.000481e+001
1.000500e+001
1.000518e+001
1.000535e+001
1.000551e+001
1.000566e+001
1.000580e+001
1.000594e+001
1.000606e+001
1.000618e+001
1.000629e+001
1.000639e+001
1.000647e+001
1.000655e+001
1.000662e+001
1.000668e+001
1.000672e+001
1.000676e+001
1.000679e+001
1.000680e+001
1.000681e+001
1.000680e+001
1.000679e+001
1.000676e+001
1.000672e+001
1.000668e+001
1.000662e+001
1.000655e+001
1.000647e+001
1.000639e+001
1.000629e+001
1.000618e+001
1.000606e+001
1.000594e+001
1.000580e+001
1.000566e+001
1.000551e+001
1.000535e+001
1.000518e+001
1.000500e+001
1.000481e+001
1.000462e+001
1.000442e+001
1.000421e+001
1.000400e+001
1.000378e+001
1.000356e+001
1.000333e+001
1.000309e+001
1.000285e+001
1.000260e+001
1.000236e+001
1.000210e+001
1.000185e+001
1.000159e+001
1.000133e+001
1.000106e+001
1.000080e+001
1.000053e+001
1.000027e+001
1.000000e+001
1.000000e+001
1.000040e+001
1.000080e+001
1.000120e+001
1.000160e+001
1.000199e+001
1.000239e+001
1.000277e+001
1.000316e+001
1.000354e+001
1.000391e+001
1.000428e+001
1.000464e+001
1.000500e+001
1.000534e+001
1.000568e+001
1.000601e+001
1.000633e+001
1.000664e+001
1.000694e+001
1.000723e+001
1.000751e+001
1.000777e+001
1.000803e+001
1.000827e+001
1.000850e+001
1.000872e+001
1.000892e+001
1.000911e+001
1.000928e+001
1.000944e+001
1.000959e+001
1.000972e+001
1.000984e+001
1.000994e+001
1.001003e+001
1.001010e+001
1.001015e+001
1.001019e+001
1.001021e+001
1.001022e+001
1.001021e+001
1.001019e+001
1.001015e+001
1.001010e+001
1.001003e+001
1.000994e+001
1.000984e+001
1.000972e+001
1.000959e+001
1.000944e+001
1.000928e+001
1.000911e+001
1.000892e+001
1.000872e+001
1.000850e+001
1.000827e+001
1.000803e+001
1.000777e+001
1.000751e+001
1.000723e+001
1.000694e+001
1.000664e+001
1.000633e+001
1.000601e+001
1.000568e+001
1.000534e+001
1.000500e+001
1.000464e+001
1.000428e+001
1.000391e+001
1.000354e+001
1.000316e+001
1.000277e+001
1.000239e+001
1.000199e+001
1.000160e+001
1.000120e+001
1.000080e+001
1.000040e+001
1.000000e+001
1.000000e+001
1.000054e+001
1.000107e+001
1.000160e+001
1.000214e+001
1.000266e+001
1.000319e+001
1.000371e+001
1.000422e+001
1.000473e+001
1.000523e+001
1.000572e+001
1.000620e+001
1.000667e+001
1.000713e+001
1.000759e+001
1.000803e+001
1.000845e+001
1.000887e+001
1.000927e+001
1.000966e+001
1.001003e+001
1.001038e+001
1.001072e+001
1.001105e+001
1.001135e+001
1.001164e+001
1.001191e+001
1.001217e+001
1.001240e+001
1.001262e+001
1.001281e+001
1.001299e+001
1.001314e+001
1.001328e+001
1.001339e+001
1.001349e+001
1.001356e+001
1.001361e+001
1.001364e+001
1.001365e+001
1.001364e+001
1.001361e+001
1.001356e+001
1.001349e+001
1.001339e+001
1.001328e+001
1.001314e+001
1.001299e+001
1.001281e+001
1.001262e+001
1.001240e+001
1.001217e+001
1.001191e+001
1.001164e+001
1.001135e+001
1.001105e+001
1.001072e+001
1.001038e+001
1.001003e+001
1.000966e+001
1.000927e+001
1.000887e+001
1.000845e+001
1.000803e+001
1.000759e+001
1.000713e+001
1.000667e+001
1.000620e+001
1.000572e+001
1.000523e+001
1.000473e+001
1.000422e+001
1.000371e+001
1.000319e+001
1.000266e+001
1.000214e+001
1.000160e+001
1.000107e+001
1.000054e+001
1.000000e+001
1.000000e+001
1.000067e+001
1.000134e+001
1.000201e+001
1.000268e+001
1.000334e+001
1.000399e+001
1.000464e+001
1.000529e+001
1.000592e+001
1.000655e+001
1.000716e+001
1.000777e+001
1.000836e+001
1.000894e+001
1.000950e+001
1.001006e+001
1.001059e+001
1.001111e+001
1.001161e+001
1.001210e+001
1.001256e+001
1.001301e+001
1.001344e+001
1.001384e+001
1.001422e+001
1.001459e+001
1.001493e+001
1.001524e+001
1.001554e+001
1.001581e+001
1.001605e+001
1.001627e+001
1.001647e+001
1.001664e+001
1.001678e+001
1.001690e+001
1.001699e+001
1.001706e+001
1.001709e+001
1.001711e+001
1.001709e+001
1.001706e+001
1.001699e+001
1.001690e+001
1.001678e+001
1.001664e+001
1.001647e+001
1.001627e+001
1.001605e+001
1.001581e+001
1.001554e+001
1.001524e+001
1.001493e+001
1.001459e+001
1.001422e+001
1.001384e+001
1.001344e+001
1.001301e+001
1.001256e+001
1.001210e+001
1.001161e+001
1.001111e+001
1.001059e+001
1.001006e+001
1.000950e+001
1.000894e+001
1.000836e+001
1.000777e+001
1.000716e+001
1.000655e+001
1.000592e+001
1.000529e+001
1.000464e+001
1.000399e+001
1.000334e+001
1.000268e+001
1.000201e+001
1.000134e+001
1.000067e+001
1.000000e+001
1.000000e+001
1.000081e+001
1.000162e+001
1.000242e+001
1.000322e+001
1.000402e+001
1.000481e+001
1.000559e+001
1.000636e+001
1.000713e+001
1.000788e+001
1.000862e+001
1.000935e+001
1.001006e+001
1.001076e+001
1.001144e+001
1.001210e+001
1.001275e+001
1.001337e+001
1.001397e+001
1.001456e+001
1.001512e+001
1.001565e+001
1.001617e+001
1.001666e+001
1.001712e+001
1.001755e+001
1.001796e+001
1.001834e+001
1.001870e+001
1.001902e+001
1.001932e+001
1.001958e+001
1.001981e+001
1.002002e+001
1.002019e+001
1.002033e+001
1.002045e+001
1.002052e+001
1.002057e+001
1.002059e+001
1.002057e+001
1.002052e+001
1.002045e+001
1.002033e+001
1.002019e+001
1.002002e+001
1.001981e+001
1.001958e+001
1.001932e+001
1.001902e+001
1.001870e+001
1.001834e+001
1.001796e+001
1.001755e+001
1.001712e+001
1.001666e+001
1.001617e+001
1.001566e+001
1.001512e+001
1.001456e+001
1.001398e+001
1.001337e+001
1.001275e+001
1.001210e+001
1.001144e+001
1.001076e+001
1.001006e+001
1.000935e+001
1.000862e+001
1.000788e+001
1.000713e+001
1.000636e+001
1.000559e+001
1.000481e+001
1.000402e+001
1.000322e+001
1.000242e+001
1.000162e+001
1.000081e+001
1.000000e+001
1.000000e+001
1.000095e+001
1.000189e+001
1.000283e+001
1.000377e+001
1.000470e+001
1.000563e+001
1.000654e+001
1.000745e+001
1.000834e+001
1.000922e+001
1.001009e+001
1.001094e+001
1.001178e+001
1.001259e+001
1.001339e+001
1.001417e+001
1.001492e+001
1.001565e+001
1.001636e+001
1.001704e+001
1.001770e+001
1.001833e+001
1.001893e+001
1.001950e+001
1.002004e+001
1.002055e+001
1.002103e+001
1.002147e+001
1.002189e+001
1.002226e+001
1.002261e+001
1.002292e+001
1.002319e+001
1.002343e+001
1.002364e+001
1.002380e+001
1.002393e+001
1.002402e+001
1.002408e+001
1.002410e+001
1.002408e+001
1.002402e+001
1.002393e+001
1.002380e+001
1.002364e+001
1.002343e+001
1.002319e+001
1.002292e+001
1.002261e+001
1.002226e+001
1.002189e+001
1.002147e+001
1.002103e+001
1.002055e+001
1.002004e+001
1.001950e+001
1.001893e+001
1.001833e+001
1.001770e+001
1.001704e+001
1.001636e+001
1.001565e+001
1.001492e+001
1.001417e+001
1.001339e+001
1.001259e+001
1.001178e+001
1.001094e+001
1.001009e+001
1.000922e+001
1.000834e+001
1.000745e+001
1.000654e+001
1.000563e+001
1.000470e+001
1.000377e+001
1.000283e+001
1.000189e+001
1.000095e+001
1.000000e+001
1.000000e+001
1.000109e+001
1.000217e+001
1.000325e+001
1.000433e+001
1.000539e+001
1.000645e+001
1.000750e+001
1.000854e+001
1.000957e+001
1.001058e+001
1.001157e+001
1.001255e+001
1.001351e+001
1.001445e+001
1.001536e+001
1.001625e+001
1.001712e+001
1.001796e+001
1.001877e+001
1.001955e+001
1.002030e+001
1.002102e+001
1.002171e+001
1.002237e+001
1.002299e+001
1.002357e+001
1.002412e+001
1.002463e+001
1.002511e+001
1.002554e+001
1.002594e+001
1.002629e+001
1.002661e+001
1.002688e+001
1.002712e+001
1.002731e+001
1.002746e+001
1.002756e+001
1.002763e+001
1.002765e+001
1.002763e+001
1.002756e+001
1.002746e+001
1.002731e+001
1.002712e+001
1.002688e+001
1.002661e+001
1.002629e+001
1.002594e+001
1.002554e+001
1.002511e+001
1.002463e+001
1.002412e+001
1.002357e+001
1.002299e+001
1.002237e+001
1.002171e+001
1.002102e+001
1.002030e+001
1.001955e+001
1.001877e+001
1.001796e+001
1.001712e+001
1.001625e+001
1.001536e+001
1.001445e+001
1.001351e+001
1.001255e+001
1.001158e+001
1.001058e+001
1.000957e+001
1.000854e+001
1.000750e+001
1.000645e+001
1.000539e+001
1.000433e+001
1.000325e+001
1.000217e+001
1.000109e+001
1.000000e+001
1.000000e+001
1.000123e+001
1.000245e+001
1.000367e+001
1.000489e+001
1.000609e+001
1.000729e+001
1.000848e+001
1.000965e+001
1.001081e+001
1.001195e+001
1.001308e+001
1.001418e+001
1.001526e+001
1.001632e+001
1.001736e+001
1.001836e+001
1.001934e+001
1.002029e+001
1.002120e+001
1.002209e+001
1.002294e+001
1.002375e+001
1.002453e+001
1.002527e+001
1.002597e+001
1.002664e+001
1.002726e+001
1.002783e+001
1.002837e+001
1.002886e+001
1.002931e+001
1.002971e+001
1.003007e+001
1.003038e+001
1.003064e+001
1.003085e+001
1.003102e+001
1.003114e+001
1.003121e+001
1.003124e+001
1.003121e+001
1.003114e+001
1.003102e+001
1.003085e+001
1.003064e+001
1.003038e+001
1.003007e+001
1.002971e+001
1.002931e+001
1.002886e+001
1.002837e+001
1.002783e+001
1.002726e+001
1.002664e+001
1.002597e+001
1.002527e+001
1.002453e+001
1.002375e+001
1.002294e+001
1.002209e+001
1.002121e+001
1.002029e+001
1.001934e+001
1.001836e+001
1.001736e+001
1.001632e+001
1.001526e+001
1.001418e+001
1.001308e+001
1.001195e+001
1.001081e+001
1.000965e+001
1.000848e+001
1.000729e+001
1.000609e+001
1.000489e+001
1.000367e+001
1.000245e+001
1.000123e+001
1.000000e+001
1.000000e+001
1.000137e+001
1.000274e+001
1.000410e+001
1.000546e+001
1.000680e+001
1.000814e+001
1.000947e+001
1.001078e+001
1.001207e+001
1.001335e+001
1.001460e+001
1.001583e+001
1.001704e+001
1.001822e+001
1.001938e+001
1.002050e+001
1.002159e+001
1.002265e+001
1.002368e+001
1.002466e+001
1.002561e+001
1.002652e+001
1.002739e+001
1.002822e+001
1.002900e+001
1.002974e+001
1.003043e+001
1.003108e+001
1.003167e+001
1.003222e+001
1.003272e+001
1.003317e+001
1.003357e+001
1.003391e+001
1.003421e+001
1.003445e+001
1.003464e+001
1.003477e+001
1.003485e+001
1.003488e+001
1.003485e+001
1.003477e+001
1.003464e+001
1.003445e+001
1.003421e+001
1.003391e+001
1.003357e+001
1.003317e+001
1.003272e+001
1.003222e+001
1.003167e+001
1.003108e+001
1.003043e+001
1.002974e+001
1.002900e+001
1.002822e+001
1.002739e+001
1.002652e+001
1.002561e+001
1.002466e+001
1.002368e+001
1.002265e+001
1.002159e+001
1.002050e+001
1.001938e+001
1.001822e+001
1.001704e+001
1.001583e+001
1.001460e+001
1.001335e+001
1.001207e+001
1.001078e+001
1.000947e+001
1.000814e+001
1.000680e+001
1.000546e+001
1.000410e+001
1.000274e+001
1.000137e+001
1.000000e+001
1.000000e+001
1.000151e+001
1.000303e+001
1.000453e+001
1.000603e+001
1.000752e+001
1.000900e+001
1.001047e+001
1.001192e+001
1.001335e+001
1.001476e+001
1.001615e+001
1.001751e+001
1.001885e+001
1.002015e+001
1.002143e+001
1.002267e+001
1.002388e+001
1.002505e+001
1.002618e+001
1.002727e+001
1.002832e+001
1.002933e+001
1.003029e+001
1.003120e+001
1.003207e+001
1.003289e+001
1.003365e+001
1.003437e+001
1.003503e+001
1.003564e+001
1.003619e+001
1.003668e+001
1.003712e+001
1.003751e+001
1.003783e+001
1.003810e+001
1.003830e+001
1.003845e+001
1.003854e+001
1.003857e+001
1.003854e+001
1.003845e+001
1.003830e+001
1.003810e+001
1.003783e+001
1.003751e+001
1.003712e+001
1.003668e+001
1.003619e+001
1.003564e+001
1.003503e+001
1.003437e+001
1.003365e+001
1.003289e+001
1.003207e+001
1.003121e+001
1.003029e+001
1.002933e+001
1.002832e+001
1.002727e+001
1.002618e+001
1.002505e+001
1.002388e+001
1.002267e+001
1.002143e+001
1.002015e+001
1.001885e+001
1.001751e+001
1.001615e+001
1.001476e+001
1.001335e+001
1.001192e+001
1.001047e+001
1.000900e+001
1.000752e+001
1.000603e+001
1.000453e+001
1.000303e+001
1.000151e+001
1.000000e+001
1.000000e+001
1.000166e+001
1.000332e+001
1.000497e+001
1.000662e+001
1.000826e+001
1.000988e+001
1.001149e+001
1.001308e+001
1.001465e+001
1.001620e+001
1.001772e+001
1.001921e+001
1.002068e+001
1.002211e+001
1.002351e+001
1.002488e+001
1.002620e+001
1.002749e+001
1.002873e+001
1.002993e+001
1.003108e+001
1.003218e+001
1.003324e+001
1.003424e+001
1.003519e+001
1.003609e+001
1.003693e+001
1.003771e+001
1.003844e+001
1.003910e+001
1.003971e+001
1.004025e+001
1.004074e+001
1.004115e+001
1.004151e+001
1.004180e+001
1.004203e+001
1.004219e+001
1.004229e+001
1.004232e+001
1.004229e+001
1.004219e+001
1.004203e+001
1.004180e+001
1.004151e+001
1.004115e+001
1.004074e+001
1.004025e+001
1.003971e+001
1.003910e+001
1.003844e+001
1.003771e+001
1.003693e+001
1.003609e+001
1.003519e+001
1.003424e+001
1.003324e+001
1.003218e+001
1.003108e+001
1.002993e+001
1.002873e+001
1.002749e+001
1.002620e+001
1.002488e+001
1.002351e+001
1.002211e+001
1.002068e+001
1.001921e+001
1.001772e+001
1.001620e+001
1.001465e+001
1.001308e+001
1.001149e+001
1.000988e+001
1.000826e+001
1.000662e+001
1.000497e+001
1.000332e+001
1.000166e+001
1.000000e+001
1.000000e+001
1.000181e+001
1.000362e+001
1.000542e+001
1.000722e+001
1.000900e+001
1.001077e+001
1.001252e+001
1.001426e+001
1.001597e+001
1.001766e+001
1.001932e+001
1.002095e+001
1.002255e+001
1.002411e+001
1.002564e+001
1.002712e+001
1.002857e+001
1.002997e+001
1.003132e+001
1.003263e+001
1.003388e+001
1.003509e+001
1.003624e+001
1.003733e+001
1.003837e+001
1.003934e+001
1.004026e+001
1.004111e+001
1.004190e+001
1.004263e+001
1.004329e+001
1.004388e+001
1.004441e+001
1.004487e+001
1.004526e+001
1.004557e+001
1.004582e+001
1.004600e+001
1.004611e+001
1.004614e+001
1.004611e+001
1.004600e+001
1.004582e+001
1.004557e+001
1.004526e+001
1.004487e+001
1.004441e+001
1.004388e+001
1.004329e+001
1.004263e+001
1.004190e+001
1.004111e+001
1.004026e+001
1.003934e+001
1.003837e+001
1.003733e+001
1.003624e+001
1.003509e+001
1.003388e+001
1.003263e+001
1.003132e+001
1.002997e+001
1.002857e+001
1.002712e+001
1.002564e+001
1.002411e+001
1.002255e+001
1.002095e+001
1.001932e+001
1.001766e+001
1.001597e+001
1.001426e+001
1.001252e+001
1.001077e+001
1.000900e+001
1.000722e+001
1.000542e+001
1.000362e+001
1.000181e+001
1.000000e+001
1.000000e+001
1.000196e+001
1.000393e+001
1.000588e+001
1.000783e+001
1.000976e+001
1.001168e+001
1.001358e+001
1.001546e+001
1.001732e+001
1.001915e+001
1.002095e+001
1.002271e+001
1.002445e+001
1.002614e+001
1.002780e+001
1.002941e+001
1.003097e+001
1.003249e+001
1.003396e+001
1.003538e+001
1.003674e+001
1.003804e+001
1.003929e+001
1.004048e+001
1.004160e+001
1.004266e+001
1.004365e+001
1.004458e+001
1.004544e+001
1.004622e+001
1.004694e+001
1.004758e+001
1.004815e+001
1.004865e+001
1.004907e+001
1.004942e+001
1.004968e+001
1.004988e+001
1.004999e+001
1.005003e+001
1.004999e+001
1.004988e+001
1.004968e+001
1.004942e+001
1.004907e+001
1.004865e+001
1.004815e+001
1.004758e+001
1.004694e+001
1.004622e+001
1.004544e+001
1.004458e+001
1.004365e+001
1.004266e+001
1.004160e+001
1.004048e+001
1.003929e+001
1.003804e+001
1.003674e+001
1.003538e+001
1.003396e+001
1.003249e+001
1.003097e+001
1.002941e+001
1.002780e+001
1.002614e+001
1.002445e+001
1.002271e+001
1.002095e+001
1.001915e+001
1.001732e+001
1.001546e+001
1.001358e+001
1.001168e+001
1.000976e+001
1.000783e+001
1.000588e+001
1.000393e+001
1.000196e+001
1.000000e+001
1.000000e+001
1.000212e+001
1.000424e+001
1.000635e+001
1.000845e+001
1.001053e+001
1.001261e+001
1.001466e+001
1.001669e+001
1.001869e+001
1.002066e+001
1.002261e+001
1.002451e+001
1.002638e+001
1.002821e+001
1.003000e+001
1.003174e+001
1.003343e+001
1.003507e+001
1.003665e+001
1.003818e+001
1.003965e+001
1.004106e+001
1.004241e+001
1.004369e+001
1.004490e+001
1.004604e+001
1.004711e+001
1.004811e+001
1.004904e+001
1.004989e+001
1.005066e+001
1.005135e+001
1.005197e+001
1.005251e+001
1.005296e+001
1.005333e+001
1.005362e+001
1.005383e+001
1.005396e+001
1.005400e+001
1.005396e+001
1.005383e+001
1.005362e+001
1.005333e+001
1.005296e+001
1.005251e+001
1.005197e+001
1.005136e+001
1.005066e+001
1.004989e+001
1.004904e+001
1.004811e+001
1.004711e+001
1.004604e+001
1.004490e+001
1.004369e+001
1.004241e+001
1.004106e+001
1.003965e+001
1.003818e+001
1.003665e+001
1.003507e+001
1.003343e+001
1.003174e+001
1.003000e+001
1.002821e+001
1.002638e+001
1.002451e+001
1.002261e+001
1.002066e+001
1.001869e+001
1.001669e+001
1.001466e+001
1.001261e+001
1.001053e+001
1.000845e+001
1.000635e+001
1.000424e+001
1.000212e+001
1.000000e+001
1.000000e+001
1.000228e+001
1.000455e+001
1.000682e+001
1.000908e+001
1.001132e+001
1.001355e+001
1.001576e+001
1.001794e+001
1.002009e+001
1.002221e+001
1.002430e+001
1.002635e+001
1.002836e+001
1.003033e+001
1.003225e+001
1.003412e+001
1.003594e+001
1.003770e+001
1.003940e+001
1.004105e+001
1.004263e+001
1.004414e+001
1.004559e+001
1.004696e+001
1.004826e+001
1.004949e+001
1.005065e+001
1.005172e+001
1.005272e+001
1.005363e+001
1.005446e+001
1.005521e+001
1.005587e+001
1.005644e+001
1.005693e+001
1.005733e+001
1.005765e+001
1.005787e+001
1.005800e+001
1.005805e+001
1.005800e+001
1.005787e+001
1.005765e+001
1.005733e+001
1.005693e+001
1.005644e+001
1.005587e+001
1.005521e+001
1.005446e+001
1.005363e+001
1.005272e+001
1.005172e+001
1.005065e+001
1.004949e+001
1.004826e+001
1.004696e+001
1.004559e+001
1.004414e+001
1.004263e+001
1.004105e+001
1.003940e+001
1.003770e+001
1.003594e+001
1.003412e+001
1.003225e+001
1.003033e+001
1.002836e+001
1.002635e+001
1.002430e+001
1.002221e+001
1.002009e+001
1.001794e+001
1.001576e+001
1.001355e+001
1.001132e+001
1.000908e+001
1.000682e+001
1.000455e+001
1.000228e+001
1.000000e+001
1.000000e+001
1.000244e+001
1.000488e+001
1.000731e+001
1.000973e+001
1.001213e+001
1.001452e+001
1.001688e+001
1.001922e+001
1.002152e+001
1.002380e+001
1.002604e+001
1.002823e+001
1.003039e+001
1.003249e+001
1.003455e+001
1.003655e+001
1.003850e+001
1.004039e+001
1.004221e+001
1.004397e+001
1.004567e+001
1.004729e+001
1.004884e+001
1.005031e+001
1.005171e+001
1.005302e+001
1.005426e+001
1.005541e+001
1.005647e+001
1.005745e+001
1.005834e+001
1.005914e+001
1.005985e+001
1.006047e+001
1.006099e+001
1.006142e+001
1.006176e+001
1.006200e+001
1.006214e+001
1.006219e+001
1.006214e+001
1.006200e+001
1.006176e+001
1.006142e+001
1.006099e+001
1.006047e+001
1.005985e+001
1.005914e+001
1.005834e+001
1.005745e+001
1.005647e+001
1.005541e+001
1.005426e+001
1.005302e+001
1.005171e+001
1.005031e+001
1.004884e+001
1.004729e+001
1.004567e+001
1.004397e+001
1.004221e+001
1.004039e+001
1.003850e+001
1.003655e+001
1.003455e+001
1.003249e+001
1.003039e+001
1.002823e+001
1.002604e+001
1.002380e+001
1.002152e+001
1.001922e+001
1.001688e+001
1.001452e+001
1.001213e+001
1.000973e+001
1.000731e+001
1.000488e+001
1.000244e+001
1.000000e+001
1.000000e+001
1.000261e+001
1.000521e+001
1.000781e+001
1.001039e+001
1.001296e+001
1.001551e+001
1.001803e+001
1.002053e+001
1.002299e+001
1.002542e+001
1.002781e+001
1.003015e+001
1.003246e+001
1.003471e+001
1.003690e+001
1.003904e+001
1.004112e+001
1.004314e+001
1.004509e+001
1.004697e+001
1.004878e+001
1.005051e+001
1.005216e+001
1.005374e+001
1.005523e+001
1.005663e+001
1.005795e+001
1.005918e+001
1.006032e+001
1.006137e+001
1.006232e+001
1.006317e+001
1.006393e+001
1.006459e+001
1.006515e+001
1.006560e+001
1.006596e+001
1.006622e+001
1.006637e+001
1.006642e+001
1.006637e+001
1.006622e+001
1.006596e+001
1.006560e+001
1.006515e+001
1.006459e+001
1.006393e+001
1.006317e+001
1.006232e+001
1.006137e+001
1.006032e+001
1.005918e+001
1.005795e+001
1.005663e+001
1.005523e+001
1.005374e+001
1.005216e+001
1.005051e+001
1.004878e+001
1.004697e+001
1.004509e+001
1.004314e+001
1.004112e+001
1.003904e+001
1.003690e+001
1.003471e+001
1.003246e+001
1.003016e+001
1.002781e+001
1.002542e+001
1.002299e+001
1.002053e+001
1.001803e+001
1.001551e+001
1.001296e+001
1.001039e+001
1.000781e+001
1.000521e+001
1.000261e+001
1.000000e+001
1.000000e+001
1.000278e+001
1.000555e+001
1.000832e+001
1.001107e+001
1.001380e+001
1.001652e+001
1.001921e+001
1.002187e+001
1.002449e+001
1.002708e+001
1.002962e+001
1.003212e+001
1.003457e+001
1.003697e+001
1.003931e+001
1.004159e+001
1.004381e+001
1.004595e+001
1.004803e+001
1.005003e+001
1.005196e+001
1.005381e+001
1.005557e+001
1.005725e+001
1.005883e+001
1.006033e+001
1.006174e+001
1.006305e+001
1.006426e+001
1.006537e+001
1.006639e+001
1.006730e+001
1.006810e+001
1.006880e+001
1.006940e+001
1.006989e+001
1.007027e+001
1.007054e+001
1.007071e+001
1.007076e+001
1.007071e+001
1.007054e+001
1.007027e+001
1.006989e+001
1.006940e+001
1.006880e+001
1.006810e+001
1.006730e+001
1.006639e+001
1.006537e+001
1.006426e+001
1.006305e+001
1.006174e+001
1.006033e+001
1.005883e+001
1.005725e+001
1.005557e+001
1.005381e+001
1.005196e+001
1.005003e+001
1.004803e+001
1.004595e+001
1.004381e+001
1.004159e+001
1.003931e+001
1.003697e+001
1.003457e+001
1.003212e+001
1.002962e+001
1.002708e+001
1.002449e+001
1.002187e+001
1.001921e+001
1.001652e+001
1.001380e+001
1.001107e+001
1.000832e+001
1.000555e+001
1.000278e+001
1.000000e+001
1.000000e+001
1.000295e+001
1.000590e+001
1.000884e+001
1.001176e+001
1.001467e+001
1.001756e+001
1.002041e+001
1.002324e+001
1.002603e+001
1.002878e+001
1.003149e+001
1.003414e+001
1.003675e+001
1.003930e+001
1.004178e+001
1.004421e+001
1.004656e+001
1.004884e+001
1.005105e+001
1.005318e+001
1.005523e+001
1.005719e+001
1.005906e+001
1.006084e+001
1.006253e+001
1.006412e+001
1.006562e+001
1.006701e+001
1.006830e+001
1.006948e+001
1.007056e+001
1.007153e+001
1.007238e+001
1.007313e+001
1.007376e+001
1.007428e+001
1.007469e+001
1.007497e+001
1.007515e+001
1.007521e+001
1.007515e+001
1.007497e+001
1.007469e+001
1.007428e+001
1.007376e+001
1.007313e+001
1.007238e+001
1.007153e+001
1.007056e+001
1.006948e+001
1.006830e+001
1.006701e+001
1.006562e+001
1.006412e+001
1.006253e+001
1.006084e+001
1.005906e+001
1.005719e+001
1.005523e+001
1.005318e+001
1.005105e+001
1.004884e+001
1.004656e+001
1.004421e+001
1.004178e+001
1.003930e+001
1.003675e+001
1.003414e+001
1.003149e+001
1.002878e+001
1.002603e+001
1.002324e+001
1.002041e+001
1.001756e+001
1.001467e+001
1.001176e+001
1.000884e+001
1.000590e+001
1.000295e+001
1.000000e+001
1.000000e+001
1.000313e+001
1.000626e+001
1.000938e+001
1.001248e+001
1.001556e+001
1.001862e+001
1.002165e+001
1.002465e+001
1.002761e+001
1.003053e+001
1.003340e+001
1.003621e+001
1.003898e+001
1.004168e+001
1.004432e+001
1.004689e+001
1.004938e+001
1.005181e+001
1.005415e+001
1.005641e+001
1.005858e+001
1.006066e+001
1.006264e+001
1.006453e+001
1.006633e+001
1.006801e+001
1.006960e+001
1.007108e+001
1.007244e+001
1.007370e+001
1.007484e+001
1.007587e+001
1.007677e+001
1.007757e+001
1.007824e+001
1.007879e+001
1.007922e+001
1.007952e+001
1.007971e+001
1.007977e+001
1.007971e+001
1.007952e+001
1.007922e+001
1.007879e+001
1.007824e+001
1.007757e+001
1.007677e+001
1.007587e+001
1.007484e+001
1.007370e+001
1.007244e+001
1.007108e+001
1.006960e+001
1.006801e+001
1.006633e+001
1.006454e+001
1.006264e+001
1.006066e+001
1.005858e+001
1.005641e+001
1.005415e+001
1.005181e+001
1.004938e+001
1.004689e+001
1.004432e+001
1.004168e+001
1.003898e+001
1.003621e+001
1.003340e+001
1.003053e+001
1.002761e+001
1.002465e+001
1.002165e+001
1.001862e+001
1.001556e+001
1.001248e+001
1.000938e+001
1.000626e+001
1.000313e+001
1.000000e+001
1.000000e+001
1.000332e+001
1.000663e+001
1.000993e+001
1.001321e+001
1.001648e+001
1.001972e+001
1.002292e+001
1.002610e+001
1.002923e+001
1.003232e+001
1.003536e+001
1.003834e+001
1.004127e+001
1.004413e+001
1.004692e+001
1.004964e+001
1.005229e+001
1.005485e+001
1.005733e+001
1.005972e+001
1.006202e+001
1.006422e+001
1.006632e+001
1.006833e+001
1.007022e+001
1.007201e+001
1.007369e+001
1.007525e+001
1.007670e+001
1.007803e+001
1.007924e+001
1.008032e+001
1.008128e+001
1.008212e+001
1.008283e+001
1.008342e+001
1.008387e+001
1.008420e+001
1.008439e+001
1.008446e+001
1.008439e+001
1.008420e+001
1.008387e+001
1.008342e+001
1.008283e+001
1.008212e+001
1.008128e+001
1.008032e+001
1.007924e+001
1.007803e+001
1.007670e+001
1.007525e+001
1.007369e+001
1.007201e+001
1.007022e+001
1.006833e+001
1.006632e+001
1.006422e+001
1.006202e+001
1.005972e+001
1.005733e+001
1.005485e+001
1.005229e+001
1.004964e+001
1.004692e+001
1.004413e+001
1.004127e+001
1.003834e+001
1.003536e+001
1.003232e+001
1.002923e+001
1.002610e+001
1.002292e+001
1.001972e+001
1.001648e+001
1.001321e+001
1.000993e+001
1.000663e+001
1.000332e+001
1.000000e+001
1.000000e+001
1.000350e+001
1.000700e+001
1.001049e+001
1.001397e+001
1.001742e+001
1.002084e+001
1.002423e+001
1.002759e+001
1.003090e+001
1.003416e+001
1.003737e+001
1.004053e+001
1.004362e+001
1.004664e+001
1.004960e+001
1.005247e+001
1.005527e+001
1.005798e+001
1.006060e+001
1.006312e+001
1.006555e+001
1.006788e+001
1.007011e+001
1.007222e+001
1.007423e+001
1.007612e+001
1.007789e+001
1.007954e+001
1.008107e+001
1.008248e+001
1.008375e+001
1.008490e+001
1.008592e+001
1.008681e+001
1.008756e+001
1.008817e+001
1.008865e+001
1.008900e+001
1.008920e+001
1.008927e+001
1.008920e+001
1.008900e+001
1.008865e+001
1.008817e+001
1.008756e+001
1.008681e+001
1.008592e+001
1.008490e+001
1.008375e+001
1.008248e+001
1.008107e+001
1.007954e+001
1.007789e+001
1.007612e+001
1.007423e+001
1.007222e+001
1.007011e+001
1.006788e+001
1.006555e+001
1.006312e+001
1.006060e+001
1.005798e+001
1.005527e+001
1.005247e+001
1.004960e+001
1.004664e+001
1.004362e+001
1.004053e+001
1.003737e+001
1.003416e+001
1.003090e+001
1.002759e+001
1.002423e+001
1.002084e+001
1.001742e+001
1.001397e+001
1.001049e+001
1.000700e+001
1.000350e+001
1.000000e+001
1.000000e+001
1.000370e+001
1.000739e+001
1.001108e+001
1.001474e+001
1.001838e+001
1.002200e+001
1.002558e+001
1.002912e+001
1.003261e+001
1.003606e+001
1.003945e+001
1.004278e+001
1.004604e+001
1.004923e+001
1.005235e+001
1.005538e+001
1.005833e+001
1.006119e+001
1.006396e+001
1.006663e+001
1.006919e+001
1.007165e+001
1.007400e+001
1.007623e+001
1.007835e+001
1.008034e+001
1.008221e+001
1.008396e+001
1.008557e+001
1.008705e+001
1.008840e+001
1.008961e+001
1.009069e+001
1.009162e+001
1.009242e+001
1.009307e+001
1.009357e+001
1.009394e+001
1.009415e+001
1.009423e+001
1.009415e+001
1.009394e+001
1.009357e+001
1.009307e+001
1.009242e+001
1.009162e+001
1.009069e+001
1.008961e+001
1.008840e+001
1.008705e+001
1.008557e+001
1.008396e+001
1.008221e+001
1.008034e+001
1.007835e+001
1.007623e+001
1.007400e+001
1.007165e+001
1.006919e+001
1.006663e+001
1.006396e+001
1.006119e+001
1.005833e+001
1.005538e+001
1.005235e+001
1.004923e+001
1.004604e+001
1.004278e+001
1.003945e+001
1.003606e+001
1.003261e+001
1.002912e+001
1.002558e+001
1.002200e+001
1.001838e+001
1.001474e+001
1.001108e+001
1.000739e+001
1.000370e+001
1.000000e+001
1.000000e+001
1.000390e+001
1.000779e+001
1.001167e+001
1.001554e+001
1.001938e+001
1.002319e+001
1.002696e+001
1.003069e+001
1.003438e+001
1.003801e+001
1.004158e+001
1.004509e+001
1.004853e+001
1.005190e+001
1.005518e+001
1.005838e+001
1.006149e+001
1.006451e+001
1.006742e+001
1.007023e+001
1.007294e+001
1.007553e+001
1.007800e+001
1.008036e+001
1.008259e+001
1.008469e+001
1.008666e+001
1.008850e+001
1.009020e+001
1.009176e+001
1.009319e+001
1.009446e+001
1.009560e+001
1.009658e+001
1.009742e+001
1.009810e+001
1.009864e+001
1.009902e+001
1.009925e+001
1.009933e+001
1.009925e+001
1.009902e+001
1.009864e+001
1.009810e+001
1.009742e+001
1.009658e+001
1.009560e+001
1.009446e+001
1.009319e+001
1.009176e+001
1.009020e+001
1.008850e+001
1.008666e+001
1.008469e+001
1.008259e+001
1.008036e+001
1.007800e+001
1.007553e+001
1.007294e+001
1.007023e+001
1.006742e+001
1.006451e+001
1.006149e+001
1.005838e+001
1.005518e+001
1.005190e+001
1.004853e+001
1.004509e+001
1.004158e+001
1.003801e+001
1.003438e+001
1.003069e+001
1.002696e+001
1.002319e+001
1.001938e+001
1.001554e+001
1.001167e+001
1.000779e+001
1.000390e+001
1.000000e+001
1.000000e+001
1.000411e+001
1.000821e+001
1.001229e+001
1.001636e+001
1.002040e+001
1.002441e+001
1.002839e+001
1.003232e+001
1.003620e+001
1.004002e+001
1.004378e+001
1.004748e+001
1.005110e+001
1.005464e+001
1.005810e+001
1.006147e+001
1.006474e+001
1.006792e+001
1.007099e+001