# vtk DataFile Version 3.0
9 points difference shceme(2-order bound)_
ASCII
DATASET STRUCTURED_POINTS
DIMENSIONS 21 21 1
ORIGIN 0.0 0.0 0.0
SPACING 0.05 0.05 1.0
POINT_DATA 441
SCALARS Temperature double 1
LOOKUP_TABLE default
5.000000e+000
5.000000e+000
5.000000e+000
5.000000e+000
5.000000e+000
5.000000e+000
5.000000e+000
5.000000e+000
5.000000e+000
5.000000e+000
5.000000e+000
5.000000e+000
5.000000e+000
5.000000e+000
5.000000e+000
5.000000e+000
5.000000e+000
5.000000e+000
5.000000e+000
5.000000e+000
5.000000e+000
5.000000e+000
1.250000e+000
7.812500e-001
7.226562e-001
7.153320e-001
7.144165e-001
7.143021e-001
7.142878e-001
7.142860e-001
7.142857e-001
7.142857e-001
7.142857e-001
7.142857e-001
7.142857e-001
7.142857e-001
7.142857e-001
7.142857e-001
7.142857e-001
7.142857e-001
7.142857e-001
5.000000e+000
5.000000e+000
7.812500e-001
2.055664e-001
1.302368e-001
1.204837e-001
1.192309e-001
1.190709e-001
1.190506e-001
1.190480e-001
1.190477e-001
1.190476e-001
1.190476e-001
1.190476e-001
1.190476e-001
1.190476e-001
1.190476e-001
1.190476e-001
1.190476e-001
1.190476e-001
1.041667e-001
5.000000e+000
5.000000e+000
7.226562e-001
1.156094e-001
3.273588e-002
2.155865e-002
2.006782e-002
1.987091e-002
1.984512e-002
1.984177e-002
1.984133e-002
1.984128e-002
1.984127e-002
1.984127e-002
1.984127e-002
1.984127e-002
1.984127e-002
1.984127e-002
1.984127e-002
1.946925e-002
1.545449e-002
5.000000e+000
5.000000e+000
7.153320e-001
1.019789e-001
1.690068e-002
5.166026e-003
3.559123e-003
3.340827e-003
3.311411e-003
3.307479e-003
3.306957e-003
3.306889e-003
3.306880e-003
3.306878e-003
3.306878e-003
3.306878e-003
3.306878e-003
3.306878e-003
3.297578e-003
3.159076e-003
2.326696e-003
5.000000e+000
5.000000e+000
7.144165e-001
9.994536e-002
1.436323e-002
2.464421e-003
8.150257e-004
5.873486e-004
5.560837e-004
5.518155e-004
5.512365e-004
5.511584e-004
5.511480e-004
5.511466e-004
5.511464e-004
5.511464e-004
5.511464e-004
5.509139e-004
5.464980e-004
5.111643e-004
3.547325e-004
5.000000e+000
5.000000e+000
7.143021e-001
9.964424e-002
1.396099e-002
2.021998e-003
3.599966e-004
1.290122e-004
9.698869e-005
9.256342e-005
9.195434e-005
9.187089e-005
9.185951e-005
9.185797e-005
9.185776e-005
9.185774e-005
9.185192e-005
9.171769e-005
9.037352e-005
8.268454e-005
5.467713e-005
5.000000e+000
5.000000e+000
7.142878e-001
9.959978e-002
1.389773e-002
1.949998e-003
2.847747e-004
5.280332e-005
2.051859e-005
1.603178e-005
1.540947e-005
1.532338e-005
1.531151e-005
1.530988e-005
1.530966e-005
1.530948e-005
1.530553e-005
1.525796e-005
1.492320e-005
1.338704e-005
8.508021e-006
5.000000e+000
5.000000e+000
7.142860e-001
9.959321e-002
1.388784e-002
1.938346e-003
2.723821e-004
4.015088e-005
7.787825e-006
3.280162e-006
2.652842e-006
2.565647e-006
2.553547e-006
2.551872e-006
2.551637e-006
2.551491e-006
2.549888e-006
2.536503e-006
2.462096e-006
2.170694e-006
1.334839e-006
5.000000e+000
5.000000e+000
7.142857e-001
9.959224e-002
1.388630e-002
1.936470e-003
2.703476e-004
3.805410e-005
5.669968e-006
1.156030e-006
5.270324e-007
4.394277e-007
4.272355e-007
4.255404e-007
4.253018e-007
4.252174e-007
4.247104e-007
4.214209e-007
4.060316e-007
3.525960e-007
2.109294e-007
5.000000e+000
5.000000e+000
7.142857e-001
9.959210e-002
1.388606e-002
1.936169e-003
2.700147e-004
3.770732e-005
5.317982e-006
8.023262e-007
1.728223e-007
8.508169e-008
7.285592e-008
7.115306e-008
7.091443e-008
7.086349e-008
7.072334e-008
6.998297e-008
6.695188e-008
5.737881e-008
3.353853e-008
5.000000e+000
5.000000e+000
7.142857e-001
9.959208e-002
1.388602e-002
1.936121e-003
2.699604e-004
3.765010e-005
5.259549e-006
7.434576e-007
1.138132e-007
2.603144e-008
1.379460e-008
1.208903e-008
1.185076e-008
1.181237e-008
1.177473e-008
1.161765e-008
1.104100e-008
9.354241e-009
5.361596e-009
5.000000e+000
5.000000e+000
7.142857e-001
9.959207e-002
1.388601e-002
1.936113e-003
2.699516e-004
3.764067e-005
5.249861e-006
7.336659e-007
1.039851e-007
1.619185e-008
3.951658e-009
2.245202e-009
2.007131e-009
1.972587e-009
1.960483e-009
1.928207e-009
1.821218e-009
1.527611e-009
8.611509e-010
5.000000e+000
5.000000e+000
7.142857e-001
9.959207e-002
1.388601e-002
1.936112e-003
2.699502e-004
3.763912e-005
5.248257e-006
7.320384e-007
1.023488e-007
1.455248e-008
2.311341e-009
6.046240e-010
3.666202e-010
3.331111e-010
3.268792e-010
3.200511e-010
3.005223e-010
2.498725e-010
1.388779e-010
5.000000e+000
5.000000e+000
7.142857e-001
9.959207e-002
1.388601e-002
1.936112e-003
2.699499e-004
3.763887e-005
5.247991e-006
7.317681e-007
1.020765e-007
1.427940e-008
2.038002e-009
3.312116e-010
9.322656e-011
5.997125e-011
5.501410e-011
5.319156e-011
4.961948e-011
4.093421e-011
2.247652e-011
5.000000e+000
5.000000e+000
7.142857e-001
9.959207e-002
1.388601e-002
1.936112e-003
2.699499e-004
3.763883e-005
5.247948e-006
7.317233e-007
1.020312e-007
1.423392e-008
1.992457e-009
2.856476e-010
4.766699e-011
1.446984e-011
9.777464e-012
8.912742e-012
8.206366e-012
6.716457e-012
3.649122e-012
5.000000e+000
5.000000e+000
7.142857e-001
9.959207e-002
1.388601e-002
1.936112e-003
2.699499e-004
3.763882e-005
5.247940e-006
7.317158e-007
1.020236e-007
1.422635e-008
1.984869e-009
2.780548e-010
4.007511e-011
6.890607e-012
2.251372e-012
1.566007e-012
1.367967e-012
1.104830e-012
5.942439e-013
5.000000e+000
5.000000e+000
7.142857e-001
9.959207e-002
1.388601e-002
1.936112e-003
2.699499e-004
3.763882e-005
5.247939e-006
7.317146e-007
1.020224e-007
1.422508e-008
1.983605e-009
2.767896e-010
3.881011e-011
5.628234e-012
9.993759e-013
3.470218e-013
2.382698e-013
1.833652e-013
9.720114e-014
5.000000e+000
5.000000e+000
7.142857e-001
9.959207e-002
1.388601e-002
1.936112e-003
2.699499e-004
3.763882e-005
5.247939e-006
7.317144e-007
1.020222e-007
1.422488e-008
1.983395e-009
2.765788e-010
3.859934e-011
5.417995e-012
7.911185e-013
1.447552e-013
5.156217e-014
3.187951e-014
1.613508e-014
5.000000e+000
5.000000e+000
7.142857e-001
1.017347e-001
1.445259e-002
2.048588e-003
2.898172e-004
4.093201e-005
5.772493e-006
8.130259e-007
1.143810e-007
1.607574e-008
2.257391e-009
3.167463e-010
4.441820e-011
6.229525e-012
8.775804e-013
1.277919e-013
2.241926e-014
6.787347e-015
2.865304e-015
5.000000e+000
5.000000e+000
5.078217e+000
5.154508e+000
5.226995e+000
5.293893e+000
5.353553e+000
5.404508e+000
5.445503e+000
5.475528e+000
5.493844e+000
5.500000e+000
5.493844e+000
5.475528e+000
5.445503e+000
5.404508e+000
5.353553e+000
5.293893e+000
5.226995e+000
5.154508e+000
5.078217e+000
5.000000e+000
