# vtk DataFile Version 3.0
9 points difference shceme(2-order bound)_
ASCII
DATASET STRUCTURED_POINTS
DIMENSIONS 81 81 1
ORIGIN 0.0 0.0 0.0
SPACING 0.0125 0.0125 1.0
POINT_DATA 6561
SCALARS Temperature double 1
LOOKUP_TABLE default
1.200000e+001
1.200000e+001
1.200000e+001
1.200000e+001
1.200000e+001
1.200000e+001
1.200000e+001
1.200000e+001
1.200000e+001
1.200000e+001
1.200000e+001
1.200000e+001
1.200000e+001
1.200000e+001
1.200000e+001
1.200000e+001
1.200000e+001
1.200000e+001
1.200000e+001
1.200000e+001
1.200000e+001
1.200000e+001
1.200000e+001
1.200000e+001
1.200000e+001
1.200000e+001
1.200000e+001
1.200000e+001
1.200000e+001
1.200000e+001
1.200000e+001
1.200000e+001
1.200000e+001
1.200000e+001
1.200000e+001
1.200000e+001
1.200000e+001
1.200000e+001
1.200000e+001
1.200000e+001
1.200000e+001
1.200000e+001
1.200000e+001
1.200000e+001
1.200000e+001
1.200000e+001
1.200000e+001
1.200000e+001
1.200000e+001
1.200000e+001
1.200000e+001
1.200000e+001
1.200000e+001
1.200000e+001
1.200000e+001
1.200000e+001
1.200000e+001
1.200000e+001
1.200000e+001
1.200000e+001
1.200000e+001
1.200000e+001
1.200000e+001
1.200000e+001
1.200000e+001
1.200000e+001
1.200000e+001
1.200000e+001
1.200000e+001
1.200000e+001
1.200000e+001
1.200000e+001
1.200000e+001
1.200000e+001
1.200000e+001
1.200000e+001
1.200000e+001
1.200000e+001
1.200000e+001
1.200000e+001
1.200000e+001
1.200000e+001
7.200000e+000
5.760000e+000
5.328000e+000
5.198400e+000
5.159520e+000
5.147856e+000
5.144357e+000
5.143307e+000
5.142992e+000
5.142898e+000
5.142869e+000
5.142861e+000
5.142858e+000
5.142857e+000
5.142857e+000
5.142857e+000
5.142857e+000
5.142857e+000
5.142857e+000
5.142857e+000
5.142857e+000
5.142857e+000
5.142857e+000
5.142857e+000
5.142857e+000
5.142857e+000
5.142857e+000
5.142857e+000
5.142857e+000
5.142857e+000
5.142857e+000
5.142857e+000
5.142857e+000
5.142857e+000
5.142857e+000
5.142857e+000
5.142857e+000
5.142857e+000
5.142857e+000
5.142857e+000
5.142857e+000
5.142857e+000
5.142857e+000
5.142857e+000
5.142857e+000
5.142857e+000
5.142857e+000
5.142857e+000
5.142857e+000
5.142857e+000
5.142857e+000
5.142857e+000
5.142857e+000
5.142857e+000
5.142857e+000
5.142857e+000
5.142857e+000
5.142857e+000
5.142857e+000
5.142857e+000
5.142857e+000
5.142857e+000
5.142857e+000
5.142857e+000
5.142857e+000
5.142857e+000
5.142857e+000
5.142857e+000
5.142857e+000
5.142857e+000
5.142857e+000
5.142857e+000
5.142857e+000
5.142857e+000
5.142857e+000
5.142857e+000
5.142857e+000
5.142857e+000
5.142857e+000
1.200000e+001
1.200000e+001
5.760000e+000
3.516480e+000
2.780179e+000
2.544110e+000
2.469647e+000
2.446433e+000
2.439259e+000
2.437057e+000
2.436384e+000
2.436179e+000
2.436117e+000
2.436098e+000
2.436093e+000
2.436091e+000
2.436090e+000
2.436090e+000
2.436090e+000
2.436090e+000
2.436090e+000
2.436090e+000
2.436090e+000
2.436090e+000
2.436090e+000
2.436090e+000
2.436090e+000
2.436090e+000
2.436090e+000
2.436090e+000
2.436090e+000
2.436090e+000
2.436090e+000
2.436090e+000
2.436090e+000
2.436090e+000
2.436090e+000
2.436090e+000
2.436090e+000
2.436090e+000
2.436090e+000
2.436090e+000
2.436090e+000
2.436090e+000
2.436090e+000
2.436090e+000
2.436090e+000
2.436090e+000
2.436090e+000
2.436090e+000
2.436090e+000
2.436090e+000
2.436090e+000
2.436090e+000
2.436090e+000
2.436090e+000
2.436090e+000
2.436090e+000
2.436090e+000
2.436090e+000
2.436090e+000
2.436090e+000
2.436090e+000
2.436090e+000
2.436090e+000
2.436090e+000
2.436090e+000
2.436090e+000
2.436090e+000
2.436090e+000
2.436090e+000
2.436090e+000
2.436090e+000
2.436090e+000
2.436090e+000
2.436090e+000
2.436090e+000
2.436090e+000
2.436090e+000
2.436090e+000
2.273684e+000
1.200000e+001
1.200000e+001
5.328000e+000
2.635086e+000
1.663299e+000
1.324768e+000
1.210092e+000
1.172100e+000
1.159736e+000
1.155769e+000
1.154511e+000
1.154116e+000
1.153993e+000
1.153954e+000
1.153943e+000
1.153939e+000
1.153938e+000
1.153938e+000
1.153938e+000
1.153937e+000
1.153937e+000
1.153937e+000
1.153937e+000
1.153937e+000
1.153937e+000
1.153937e+000
1.153937e+000
1.153937e+000
1.153937e+000
1.153937e+000
1.153937e+000
1.153937e+000
1.153937e+000
1.153937e+000
1.153937e+000
1.153937e+000
1.153937e+000
1.153937e+000
1.153937e+000
1.153937e+000
1.153937e+000
1.153937e+000
1.153937e+000
1.153937e+000
1.153937e+000
1.153937e+000
1.153937e+000
1.153937e+000
1.153937e+000
1.153937e+000
1.153937e+000
1.153937e+000
1.153937e+000
1.153937e+000
1.153937e+000
1.153937e+000
1.153937e+000
1.153937e+000
1.153937e+000
1.153937e+000
1.153937e+000
1.153937e+000
1.153937e+000
1.153937e+000
1.153937e+000
1.153937e+000
1.153937e+000
1.153937e+000
1.153937e+000
1.153937e+000
1.153937e+000
1.153937e+000
1.153937e+000
1.153937e+000
1.153937e+000
1.153937e+000
1.153937e+000
1.153937e+000
1.153937e+000
1.144193e+000
1.025363e+000
1.200000e+001
1.200000e+001
5.198400e+000
2.299515e+000
1.188666e+000
7.756277e-001
6.263848e-001
5.738261e-001
5.557270e-001
5.496138e-001
5.475830e-001
5.469179e-001
5.467027e-001
5.466338e-001
5.466120e-001
5.466051e-001
5.466029e-001
5.466023e-001
5.466021e-001
5.466020e-001
5.466020e-001
5.466020e-001
5.466020e-001
5.466020e-001
5.466020e-001
5.466020e-001
5.466020e-001
5.466020e-001
5.466020e-001
5.466020e-001
5.466020e-001
5.466020e-001
5.466020e-001
5.466020e-001
5.466020e-001
5.466020e-001
5.466020e-001
5.466020e-001
5.466020e-001
5.466020e-001
5.466020e-001
5.466020e-001
5.466020e-001
5.466020e-001
5.466020e-001
5.466020e-001
5.466020e-001
5.466020e-001
5.466020e-001
5.466020e-001
5.466020e-001
5.466020e-001
5.466020e-001
5.466020e-001
5.466020e-001
5.466020e-001
5.466020e-001
5.466020e-001
5.466020e-001
5.466020e-001
5.466020e-001
5.466020e-001
5.466020e-001
5.466020e-001
5.466020e-001
5.466020e-001
5.466020e-001
5.466020e-001
5.466020e-001
5.466020e-001
5.466020e-001
5.466020e-001
5.466020e-001
5.466020e-001
5.466020e-001
5.466020e-001
5.466020e-001
5.466020e-001
5.460173e-001
5.364085e-001
4.685315e-001
1.200000e+001
1.200000e+001
5.159520e+000
2.173392e+000
9.914026e-001
5.329904e-001
3.592173e-001
2.948571e-001
2.715466e-001
2.632771e-001
2.603983e-001
2.594130e-001
2.590809e-001
2.589704e-001
2.589341e-001
2.589223e-001
2.589185e-001
2.589173e-001
2.589169e-001
2.589168e-001
2.589167e-001
2.589167e-001
2.589167e-001
2.589167e-001
2.589167e-001
2.589167e-001
2.589167e-001
2.589167e-001
2.589167e-001
2.589167e-001
2.589167e-001
2.589167e-001
2.589167e-001
2.589167e-001
2.589167e-001
2.589167e-001
2.589167e-001
2.589167e-001
2.589167e-001
2.589167e-001
2.589167e-001
2.589167e-001
2.589167e-001
2.589167e-001
2.589167e-001
2.589167e-001
2.589167e-001
2.589167e-001
2.589167e-001
2.589167e-001
2.589167e-001
2.589167e-001
2.589167e-001
2.589167e-001
2.589167e-001
2.589167e-001
2.589167e-001
2.589167e-001
2.589167e-001
2.589167e-001
2.589167e-001
2.589167e-001
2.589167e-001
2.589167e-001
2.589167e-001
2.589167e-001
2.589167e-001
2.589167e-001
2.589167e-001
2.589167e-001
2.589167e-001
2.589167e-001
2.589167e-001
2.589167e-001
2.589167e-001
2.589167e-001
2.589167e-001
2.588816e-001
2.581564e-001
2.515685e-001
2.160300e-001
1.200000e+001
1.200000e+001
5.147856e+000
2.126155e+000
9.105968e-001
4.274981e-001
2.384825e-001
1.658474e-001
1.384626e-001
1.283342e-001
1.246572e-001
1.233456e-001
1.228854e-001
1.227263e-001
1.226721e-001
1.226538e-001
1.226477e-001
1.226457e-001
1.226451e-001
1.226449e-001
1.226448e-001
1.226448e-001
1.226448e-001
1.226448e-001
1.226448e-001
1.226448e-001
1.226448e-001
1.226448e-001
1.226448e-001
1.226448e-001
1.226448e-001
1.226448e-001
1.226448e-001
1.226448e-001
1.226448e-001
1.226448e-001
1.226448e-001
1.226448e-001
1.226448e-001
1.226448e-001
1.226448e-001
1.226448e-001
1.226448e-001
1.226448e-001
1.226448e-001
1.226448e-001
1.226448e-001
1.226448e-001
1.226448e-001
1.226448e-001
1.226448e-001
1.226448e-001
1.226448e-001
1.226448e-001
1.226448e-001
1.226448e-001
1.226448e-001
1.226448e-001
1.226448e-001
1.226448e-001
1.226448e-001
1.226448e-001
1.226448e-001
1.226448e-001
1.226448e-001
1.226448e-001
1.226448e-001
1.226448e-001
1.226448e-001
1.226448e-001
1.226448e-001
1.226448e-001
1.226448e-001
1.226448e-001
1.226448e-001
1.226448e-001
1.226427e-001
1.225902e-001
1.220062e-001
1.181091e-001
1.002417e-001
1.200000e+001
1.200000e+001
5.144357e+000
2.108430e+000
8.777856e-001
3.822129e-001
1.845676e-001
1.067163e-001
7.649383e-002
6.494592e-002
6.060554e-002
5.900083e-002
5.841700e-002
5.820783e-002
5.813398e-002
5.810825e-002
5.809941e-002
5.809640e-002
5.809539e-002
5.809505e-002
5.809494e-002
5.809490e-002
5.809489e-002
5.809489e-002
5.809489e-002
5.809489e-002
5.809489e-002
5.809489e-002
5.809489e-002
5.809489e-002
5.809489e-002
5.809489e-002
5.809489e-002
5.809489e-002
5.809489e-002
5.809489e-002
5.809489e-002
5.809489e-002
5.809489e-002
5.809489e-002
5.809489e-002
5.809489e-002
5.809489e-002
5.809489e-002
5.809489e-002
5.809489e-002
5.809489e-002
5.809489e-002
5.809489e-002
5.809489e-002
5.809489e-002
5.809489e-002
5.809489e-002
5.809489e-002
5.809489e-002
5.809489e-002
5.809489e-002
5.809489e-002
5.809489e-002
5.809489e-002
5.809489e-002
5.809489e-002
5.809489e-002
5.809489e-002
5.809489e-002
5.809489e-002
5.809489e-002
5.809489e-002
5.809489e-002
5.809489e-002
5.809489e-002
5.809489e-002
5.809489e-002
5.809489e-002
5.809489e-002
5.809476e-002
5.809108e-002
5.804244e-002
5.765363e-002
5.551793e-002
4.672790e-002
1.200000e+001
1.200000e+001
5.143307e+000
2.101745e+000
8.645260e-001
3.629585e-001
1.607420e-001
7.985369e-002
4.782314e-002
3.529054e-002
3.045186e-002
2.861000e-002
2.791900e-002
2.766350e-002
2.757036e-002
2.753687e-002
2.752499e-002
2.752082e-002
2.751938e-002
2.751888e-002
2.751871e-002
2.751866e-002
2.751864e-002
2.751863e-002
2.751863e-002
2.751863e-002
2.751863e-002
2.751863e-002
2.751863e-002
2.751863e-002
2.751863e-002
2.751863e-002
2.751863e-002
2.751863e-002
2.751863e-002
2.751863e-002
2.751863e-002
2.751863e-002
2.751863e-002
2.751863e-002
2.751863e-002
2.751863e-002
2.751863e-002
2.751863e-002
2.751863e-002
2.751863e-002
2.751863e-002
2.751863e-002
2.751863e-002
2.751863e-002
2.751863e-002
2.751863e-002
2.751863e-002
2.751863e-002
2.751863e-002
2.751863e-002
2.751863e-002
2.751863e-002
2.751863e-002
2.751863e-002
2.751863e-002
2.751863e-002
2.751863e-002
2.751863e-002
2.751863e-002
2.751863e-002
2.751863e-002
2.751863e-002
2.751863e-002
2.751863e-002
2.751863e-002
2.751863e-002
2.751863e-002
2.751863e-002
2.751862e-002
2.751837e-002
2.751450e-002
2.747835e-002
2.724530e-002
2.612607e-002
2.185619e-002
1.200000e+001
1.200000e+001
5.142992e+000
2.099207e+000
8.591782e-001
3.548289e-001
1.503058e-001
6.775217e-002
3.464673e-002
2.148144e-002
1.629803e-002
1.428018e-002
1.350421e-002
1.320961e-002
1.309922e-002
1.305838e-002
1.304347e-002
1.303809e-002
1.303617e-002
1.303550e-002
1.303526e-002
1.303518e-002
1.303515e-002
1.303515e-002
1.303514e-002
1.303514e-002
1.303514e-002
1.303514e-002
1.303514e-002
1.303514e-002
1.303514e-002
1.303514e-002
1.303514e-002
1.303514e-002
1.303514e-002
1.303514e-002
1.303514e-002
1.303514e-002
1.303514e-002
1.303514e-002
1.303514e-002
1.303514e-002
1.303514e-002
1.303514e-002
1.303514e-002
1.303514e-002
1.303514e-002
1.303514e-002
1.303514e-002
1.303514e-002
1.303514e-002
1.303514e-002
1.303514e-002
1.303514e-002
1.303514e-002
1.303514e-002
1.303514e-002
1.303514e-002
1.303514e-002
1.303514e-002
1.303514e-002
1.303514e-002
1.303514e-002
1.303514e-002
1.303514e-002
1.303514e-002
1.303514e-002
1.303514e-002
1.303514e-002
1.303514e-002
1.303514e-002
1.303514e-002
1.303514e-002
1.303514e-002
1.303512e-002
1.303483e-002
1.303164e-002
1.300799e-002
1.287705e-002
1.230684e-002
1.024891e-002
1.200000e+001
1.200000e+001
5.142898e+000
2.098235e+000
8.570214e-001
3.514131e-001
1.457674e-001
6.234184e-002
2.863127e-002
1.508374e-002
9.677321e-003
7.537934e-003
6.699503e-003
6.374393e-003
6.249746e-003
6.202512e-003
6.184824e-003
6.178278e-003
6.175884e-003
6.175018e-003
6.174709e-003
6.174599e-003
6.174561e-003
6.174547e-003
6.174543e-003
6.174541e-003
6.174541e-003
6.174540e-003
6.174540e-003
6.174540e-003
6.174540e-003
6.174540e-003
6.174540e-003
6.174540e-003
6.174540e-003
6.174540e-003
6.174540e-003
6.174540e-003
6.174540e-003
6.174540e-003
6.174540e-003
6.174540e-003
6.174540e-003
6.174540e-003
6.174540e-003
6.174540e-003
6.174540e-003
6.174540e-003
6.174540e-003
6.174540e-003
6.174540e-003
6.174540e-003
6.174540e-003
6.174540e-003
6.174540e-003
6.174540e-003
6.174540e-003
6.174540e-003
6.174540e-003
6.174540e-003
6.174540e-003
6.174540e-003
6.174540e-003
6.174540e-003
6.174540e-003
6.174540e-003
6.174540e-003
6.174540e-003
6.174540e-003
6.174540e-003
6.174540e-003
6.174540e-003
6.174540e-003
6.174539e-003
6.174517e-003
6.174248e-003
6.171982e-003
6.157714e-003
6.087233e-003
5.802135e-003
4.815313e-003
1.200000e+001
1.200000e+001
5.142869e+000
2.097860e+000
8.561505e-001
3.499826e-001
1.438053e-001
5.993923e-002
2.590246e-002
1.213520e-002
6.592306e-003
4.373867e-003
3.492348e-003
3.144973e-003
3.009347e-003
2.956920e-003
2.936866e-003
2.929277e-003
2.926436e-003
2.925385e-003
2.924999e-003
2.924860e-003
2.924810e-003
2.924792e-003
2.924786e-003
2.924783e-003
2.924783e-003
2.924782e-003
2.924782e-003
2.924782e-003
2.924782e-003
2.924782e-003
2.924782e-003
2.924782e-003
2.924782e-003
2.924782e-003
2.924782e-003
2.924782e-003
2.924782e-003
2.924782e-003
2.924782e-003
2.924782e-003
2.924782e-003
2.924782e-003
2.924782e-003
2.924782e-003
2.924782e-003
2.924782e-003
2.924782e-003
2.924782e-003
2.924782e-003
2.924782e-003
2.924782e-003
2.924782e-003
2.924782e-003
2.924782e-003
2.924782e-003
2.924782e-003
2.924782e-003
2.924782e-003
2.924782e-003
2.924782e-003
2.924782e-003
2.924782e-003
2.924782e-003
2.924782e-003
2.924782e-003
2.924782e-003
2.924782e-003
2.924782e-003
2.924782e-003
2.924782e-003
2.924782e-003
2.924781e-003
2.924759e-003
2.924552e-003
2.923086e-003
2.914945e-003
2.878114e-003
2.737412e-003
2.265818e-003
1.200000e+001
1.200000e+001
5.142861e+000
2.097714e+000
8.557981e-001
3.493847e-001
1.429609e-001
5.887850e-002
2.467190e-002
1.078339e-002
5.160711e-003
2.893378e-003
1.983705e-003
1.620984e-003
1.477393e-003
1.421008e-003
1.399062e-003
1.390599e-003
1.387368e-003
1.386147e-003
1.385690e-003
1.385520e-003
1.385458e-003
1.385436e-003
1.385428e-003
1.385425e-003
1.385424e-003
1.385423e-003
1.385423e-003
1.385423e-003
1.385423e-003
1.385423e-003
1.385423e-003
1.385423e-003
1.385423e-003
1.385423e-003
1.385423e-003
1.385423e-003
1.385423e-003
1.385423e-003
1.385423e-003
1.385423e-003
1.385423e-003
1.385423e-003
1.385423e-003
1.385423e-003
1.385423e-003
1.385423e-003
1.385423e-003
1.385423e-003
1.385423e-003
1.385423e-003
1.385423e-003
1.385423e-003
1.385423e-003
1.385423e-003
1.385423e-003
1.385423e-003
1.385423e-003
1.385423e-003
1.385423e-003
1.385423e-003
1.385423e-003
1.385423e-003
1.385423e-003
1.385423e-003
1.385423e-003
1.385423e-003
1.385423e-003
1.385423e-003
1.385423e-003
1.385423e-003
1.385423e-003
1.385421e-003
1.385403e-003
1.385260e-003
1.384373e-003
1.379908e-003
1.361067e-003
1.292271e-003
1.067427e-003
1.200000e+001
1.200000e+001
5.142858e+000
2.097657e+000
8.556551e-001
3.491351e-001
1.425988e-001
5.841253e-002
2.411998e-002
1.016676e-002
4.499200e-003
2.202884e-003
1.275643e-003
9.028564e-004
7.537794e-004
6.945362e-004
6.711599e-004
6.620080e-004
6.584551e-004
6.570880e-004
6.565667e-004
6.563698e-004
6.562961e-004
6.562688e-004
6.562588e-004
6.562551e-004
6.562538e-004
6.562533e-004
6.562532e-004
6.562531e-004
6.562531e-004
6.562531e-004
6.562531e-004
6.562531e-004
6.562531e-004
6.562531e-004
6.562531e-004
6.562531e-004
6.562531e-004
6.562531e-004
6.562531e-004
6.562531e-004
6.562531e-004
6.562531e-004
6.562531e-004
6.562531e-004
6.562531e-004
6.562531e-004
6.562531e-004
6.562531e-004
6.562531e-004
6.562531e-004
6.562531e-004
6.562531e-004
6.562531e-004
6.562531e-004
6.562531e-004
6.562531e-004
6.562531e-004
6.562531e-004
6.562531e-004
6.562531e-004
6.562531e-004
6.562531e-004
6.562531e-004
6.562531e-004
6.562531e-004
6.562531e-004
6.562531e-004
6.562531e-004
6.562531e-004
6.562531e-004
6.562529e-004
6.562514e-004
6.562380e-004
6.561460e-004
6.556346e-004
6.532566e-004
6.437683e-004
6.103590e-004
5.033357e-004
1.200000e+001
1.200000e+001
5.142857e+000
2.097634e+000
8.555970e-001
3.490309e-001
1.424440e-001
5.820870e-002
2.387364e-002
9.886847e-003
4.194830e-003
1.881942e-003
9.441648e-004
5.650504e-004
4.123627e-004
3.511521e-004
3.267475e-004
3.170782e-004
3.132738e-004
3.117881e-004
3.112126e-004
3.109916e-004
3.109074e-004
3.108756e-004
3.108637e-004
3.108593e-004
3.108577e-004
3.108571e-004
3.108568e-004
3.108568e-004
3.108567e-004
3.108567e-004
3.108567e-004
3.108567e-004
3.108567e-004
3.108567e-004
3.108567e-004
3.108567e-004
3.108567e-004
3.108567e-004
3.108567e-004
3.108567e-004
3.108567e-004
3.108567e-004
3.108567e-004
3.108567e-004
3.108567e-004
3.108567e-004
3.108567e-004
3.108567e-004
3.108567e-004
3.108567e-004
3.108567e-004
3.108567e-004
3.108567e-004
3.108567e-004
3.108567e-004
3.108567e-004
3.108567e-004
3.108567e-004
3.108567e-004
3.108567e-004
3.108567e-004
3.108567e-004
3.108567e-004
3.108567e-004
3.108567e-004
3.108567e-004
3.108567e-004
3.108567e-004
3.108567e-004
3.108567e-004
3.108566e-004
3.108554e-004
3.108462e-004
3.107905e-004
3.105062e-004
3.092672e-004
3.045455e-004
2.884033e-004
2.375217e-004
1.200000e+001
1.200000e+001
5.142857e+000
2.097625e+000
8.555732e-001
3.489875e-001
1.423779e-001
5.811985e-002
2.376417e-002
9.760352e-003
4.055371e-003
1.733295e-003
7.894098e-004
4.064621e-004
2.514901e-004
1.889807e-004
1.638686e-004
1.538285e-004
1.498365e-004
1.482591e-004
1.476400e-004
1.473988e-004
1.473055e-004
1.472697e-004
1.472561e-004
1.472510e-004
1.472490e-004
1.472483e-004
1.472481e-004
1.472480e-004
1.472479e-004
1.472479e-004
1.472479e-004
1.472479e-004
1.472479e-004
1.472479e-004
1.472479e-004
1.472479e-004
1.472479e-004
1.472479e-004
1.472479e-004
1.472479e-004
1.472479e-004
1.472479e-004
1.472479e-004
1.472479e-004
1.472479e-004
1.472479e-004
1.472479e-004
1.472479e-004
1.472479e-004
1.472479e-004
1.472479e-004
1.472479e-004
1.472479e-004
1.472479e-004
1.472479e-004
1.472479e-004
1.472479e-004
1.472479e-004
1.472479e-004
1.472479e-004
1.472479e-004
1.472479e-004
1.472479e-004
1.472479e-004
1.472479e-004
1.472479e-004
1.472479e-004
1.472479e-004
1.472479e-004
1.472479e-004
1.472478e-004
1.472469e-004
1.472411e-004
1.472087e-004
1.470550e-004
1.464204e-004
1.440921e-004
1.363229e-004
1.121534e-004
1.200000e+001
1.200000e+001
5.142857e+000
2.097622e+000
8.555635e-001
3.489693e-001
1.423498e-001
5.808124e-002
2.371571e-002
9.703427e-003
3.991730e-003
1.664693e-003
7.173701e-004
3.321737e-004
1.758059e-004
1.124703e-004
8.688990e-005
7.659473e-005
7.246876e-005
7.082328e-005
7.017066e-005
6.991339e-005
6.981264e-005
6.977346e-005
6.975834e-005
6.975254e-005
6.975034e-005
6.974951e-005
6.974920e-005
6.974908e-005
6.974904e-005
6.974903e-005
6.974902e-005
6.974902e-005
6.974902e-005
6.974902e-005
6.974902e-005
6.974902e-005
6.974902e-005
6.974902e-005
6.974902e-005
6.974902e-005
6.974902e-005
6.974902e-005
6.974902e-005
6.974902e-005
6.974902e-005
6.974902e-005
6.974902e-005
6.974902e-005
6.974902e-005
6.974902e-005
6.974902e-005
6.974902e-005
6.974902e-005
6.974902e-005
6.974902e-005
6.974902e-005
6.974902e-005
6.974902e-005
6.974902e-005
6.974902e-005
6.974902e-005
6.974902e-005
6.974902e-005
6.974902e-005
6.974902e-005
6.974902e-005
6.974902e-005
6.974902e-005
6.974902e-005
6.974901e-005
6.974893e-005
6.974834e-005
6.974481e-005
6.972662e-005
6.964535e-005
6.932462e-005
6.818460e-005
6.445653e-005
5.298298e-005
1.200000e+001
1.200000e+001
5.142857e+000
2.097620e+000
8.555595e-001
3.489617e-001
1.423378e-001
5.806450e-002
2.369433e-002
9.677908e-003
3.962800e-003
1.633144e-003
6.839355e-004
2.974568e-004
1.402617e-004
7.641743e-005
5.053766e-005
4.007329e-005
3.585517e-005
3.416119e-005
3.348384e-005
3.321433e-005
3.310769e-005
3.306573e-005
3.304934e-005
3.304297e-005
3.304052e-005
3.303958e-005
3.303922e-005
3.303909e-005
3.303904e-005
3.303902e-005
3.303901e-005
3.303901e-005
3.303901e-005
3.303901e-005
3.303901e-005
3.303901e-005
3.303901e-005
3.303901e-005
3.303901e-005
3.303901e-005
3.303901e-005
3.303901e-005
3.303901e-005
3.303901e-005
3.303901e-005
3.303901e-005
3.303901e-005
3.303901e-005
3.303901e-005
3.303901e-005
3.303901e-005
3.303901e-005
3.303901e-005
3.303901e-005
3.303901e-005
3.303901e-005
3.303901e-005
3.303901e-005
3.303901e-005
3.303901e-005
3.303901e-005
3.303901e-005
3.303901e-005
3.303901e-005
3.303901e-005
3.303901e-005
3.303901e-005
3.303901e-005
3.303901e-005
3.303900e-005
3.303894e-005
3.303857e-005
3.303651e-005
3.302656e-005
3.298433e-005
3.282395e-005
3.226892e-005
3.048416e-005
2.504014e-005
1.200000e+001
1.200000e+001
5.142857e+000
2.097620e+000
8.555579e-001
3.489585e-001
1.423327e-001
5.805725e-002
2.368492e-002
9.666507e-003
3.949697e-003
1.618686e-003
6.684653e-004
2.812731e-004
1.236008e-004
5.945234e-005
3.338704e-005
2.281405e-005
1.853468e-005
1.680735e-005
1.611242e-005
1.583391e-005
1.572279e-005
1.567867e-005
1.566124e-005
1.565440e-005
1.565173e-005
1.565070e-005
1.565030e-005
1.565015e-005
1.565009e-005
1.565007e-005
1.565006e-005
1.565006e-005
1.565006e-005
1.565006e-005
1.565006e-005
1.565006e-005
1.565006e-005
1.565006e-005
1.565006e-005
1.565006e-005
1.565006e-005
1.565006e-005
1.565006e-005
1.565006e-005
1.565006e-005
1.565006e-005
1.565006e-005
1.565006e-005
1.565006e-005
1.565006e-005
1.565006e-005
1.565006e-005
1.565006e-005
1.565006e-005
1.565006e-005
1.565006e-005
1.565006e-005
1.565006e-005
1.565006e-005
1.565006e-005
1.565006e-005
1.565006e-005
1.565006e-005
1.565006e-005
1.565006e-005
1.565006e-005
1.565006e-005
1.565006e-005
1.565006e-005
1.565005e-005
1.565001e-005
1.564979e-005
1.564862e-005
1.564329e-005
1.562166e-005
1.554214e-005
1.527314e-005
1.442030e-005
1.183813e-005
1.200000e+001
1.200000e+001
5.142857e+000
2.097619e+000
8.555572e-001
3.489572e-001
1.423305e-001
5.805412e-002
2.368080e-002
9.661430e-003
3.943782e-003
1.612082e-003
6.613289e-004
2.737485e-004
1.158073e-004
5.148159e-005
2.530446e-005
1.466375e-005
1.034491e-005
8.595368e-006
7.888345e-006
7.603454e-006
7.489053e-006
7.443295e-006
7.425073e-006
7.417853e-006
7.415007e-006
7.413892e-006
7.413457e-006
7.413289e-006
7.413224e-006
7.413200e-006
7.413190e-006
7.413187e-006
7.413185e-006
7.413185e-006
7.413185e-006
7.413185e-006
7.413185e-006
7.413185e-006
7.413185e-006
7.413185e-006
7.413185e-006
7.413185e-006
7.413185e-006
7.413185e-006
7.413185e-006
7.413185e-006
7.413185e-006
7.413185e-006
7.413185e-006
7.413185e-006
7.413185e-006
7.413185e-006
7.413185e-006
7.413185e-006
7.413185e-006
7.413185e-006
7.413185e-006
7.413185e-006
7.413185e-006
7.413185e-006
7.413185e-006
7.413185e-006
7.413185e-006
7.413185e-006
7.413185e-006
7.413185e-006
7.413185e-006
7.413185e-006
7.413184e-006
7.413180e-006
7.413157e-006
7.413024e-006
7.412379e-006
7.409578e-006
7.398623e-006
7.359471e-006
7.229573e-006
6.822645e-006
5.598233e-006
1.200000e+001
1.200000e+001
5.142857e+000
2.097619e+000
8.555569e-001
3.489567e-001
1.423296e-001
5.805277e-002
2.367899e-002
9.659176e-003
3.941121e-003
1.609075e-003
6.580469e-004
2.702590e-004
1.121697e-004
4.774303e-005
2.150012e-005
1.081829e-005
6.474714e-006
4.710815e-006
3.995728e-006
3.706447e-006
3.589725e-006
3.542772e-006
3.523952e-006
3.516438e-006
3.513452e-006
3.512270e-006
3.511805e-006
3.511624e-006
3.511553e-006
3.511525e-006
3.511515e-006
3.511511e-006
3.511509e-006
3.511509e-006
3.511509e-006
3.511509e-006
3.511509e-006
3.511508e-006
3.511508e-006
3.511508e-006
3.511508e-006
3.511508e-006
3.511508e-006
3.511508e-006
3.511508e-006
3.511508e-006
3.511508e-006
3.511508e-006
3.511508e-006
3.511508e-006
3.511508e-006
3.511508e-006
3.511508e-006
3.511508e-006
3.511508e-006
3.511508e-006
3.511508e-006
3.511508e-006
3.511508e-006
3.511508e-006
3.511508e-006
3.511508e-006
3.511508e-006
3.511508e-006
3.511508e-006
3.511508e-006
3.511508e-006
3.511508e-006
3.511508e-006
3.511506e-006
3.511491e-006
3.511416e-006
3.511067e-006
3.509615e-006
3.504120e-006
3.484954e-006
3.422414e-006
3.228482e-006
2.648015e-006
1.200000e+001
1.200000e+001
5.142857e+000
2.097619e+000
8.555568e-001
3.489564e-001
1.423292e-001
5.805219e-002
2.367820e-002
9.658177e-003
3.939927e-003
1.607710e-003
6.565418e-004
2.686452e-004
1.104757e-004
4.599269e-005
1.971195e-005
9.005748e-006
4.647057e-006
2.874116e-006
2.153798e-006
1.861586e-006
1.743268e-006
1.695470e-006
1.676214e-006
1.668481e-006
1.665386e-006
1.664153e-006
1.663664e-006
1.663470e-006
1.663395e-006
1.663365e-006
1.663353e-006
1.663349e-006
1.663347e-006
1.663347e-006
1.663346e-006
1.663346e-006
1.663346e-006
1.663346e-006
1.663346e-006
1.663346e-006
1.663346e-006
1.663346e-006
1.663346e-006
1.663346e-006
1.663346e-006
1.663346e-006
1.663346e-006
1.663346e-006
1.663346e-006
1.663346e-006
1.663346e-006
1.663346e-006
1.663346e-006
1.663346e-006
1.663346e-006
1.663346e-006
1.663346e-006
1.663346e-006
1.663346e-006
1.663346e-006
1.663346e-006
1.663346e-006
1.663346e-006
1.663346e-006
1.663346e-006
1.663346e-006
1.663346e-006
1.663346e-006
1.663346e-006
1.663344e-006
1.663336e-006
1.663294e-006
1.663108e-006
1.662365e-006
1.659631e-006
1.650292e-006
1.620256e-006
1.527923e-006
1.252781e-006
1.200000e+001
1.200000e+001
5.142857e+000
2.097619e+000
8.555568e-001
3.489563e-001
1.423290e-001
5.805194e-002
2.367786e-002
9.657736e-003
3.939392e-003
1.607093e-003
6.558536e-004
2.679008e-004
1.096886e-004
4.517478e-005
1.887272e-005
8.152373e-006
3.784655e-006
2.006156e-006
1.282531e-006
9.884121e-007
8.690266e-007
8.206481e-007
8.010839e-007
7.931915e-007
7.900167e-007
7.887437e-007
7.882352e-007
7.880328e-007
7.879527e-007
7.879211e-007
7.879087e-007
7.879038e-007
7.879020e-007
7.879012e-007
7.879010e-007
7.879009e-007
7.879008e-007
7.879008e-007
7.879008e-007
7.879008e-007
7.879008e-007
7.879008e-007
7.879008e-007
7.879008e-007
7.879008e-007
7.879008e-007
7.879008e-007
7.879008e-007
7.879008e-007
7.879008e-007
7.879008e-007
7.879008e-007
7.879008e-007
7.879008e-007
7.879008e-007
7.879008e-007
7.879008e-007
7.879008e-007
7.879008e-007
7.879008e-007
7.879008e-007
7.879008e-007
7.879008e-007
7.879008e-007
7.879008e-007
7.879008e-007
7.879008e-007
7.879008e-007
7.879006e-007
7.878997e-007
7.878948e-007
7.878720e-007
7.877748e-007
7.873979e-007
7.860463e-007
7.815144e-007
7.671177e-007
7.231919e-007
5.927920e-007
1.200000e+001
1.200000e+001
5.142857e+000
2.097619e+000
8.555567e-001
3.489563e-001
1.423290e-001
5.805183e-002
2.367771e-002
9.657541e-003
3.939154e-003
1.606814e-003
6.555398e-004
2.675583e-004
1.093238e-004
4.479334e-005
1.847948e-005
7.751088e-006
3.378090e-006
1.596250e-006
8.705816e-007
5.752520e-007
4.551705e-007
4.064031e-007
3.866273e-007
3.786225e-007
3.753895e-007
3.740871e-007
3.735639e-007
3.733545e-007
3.732710e-007
3.732378e-007
3.732246e-007
3.732195e-007
3.732175e-007
3.732167e-007
3.732164e-007
3.732162e-007
3.732162e-007
3.732162e-007
3.732162e-007
3.732162e-007
3.732162e-007
3.732162e-007
3.732162e-007
3.732162e-007
3.732162e-007
3.732162e-007
3.732162e-007
3.732162e-007
3.732162e-007
3.732162e-007
3.732162e-007
3.732162e-007
3.732162e-007
3.732162e-007
3.732162e-007
3.732162e-007
3.732162e-007
3.732162e-007
3.732162e-007
3.732162e-007
3.732162e-007
3.732162e-007
3.732162e-007
3.732162e-007
3.732162e-007
3.732162e-007
3.732162e-007
3.732161e-007
3.732160e-007
3.732155e-007
3.732128e-007
3.732005e-007
3.731503e-007
3.729608e-007
3.722964e-007
3.701044e-007
3.632157e-007
3.423324e-007
2.805373e-007
1.200000e+001
1.200000e+001
5.142857e+000
2.097619e+000
8.555567e-001
3.489563e-001
1.423289e-001
5.805179e-002
2.367764e-002
9.657455e-003
3.939047e-003
1.606688e-003
6.553971e-004
2.674011e-004
1.091551e-004
4.461581e-005
1.829554e-005
7.562644e-006
3.186617e-006
1.402808e-006
6.759037e-007
3.798225e-007
2.592976e-007
2.102760e-007
1.903583e-007
1.822764e-007
1.790024e-007
1.776787e-007
1.771447e-007
1.769299e-007
1.768437e-007
1.768093e-007
1.767956e-007
1.767901e-007
1.767880e-007
1.767871e-007
1.767868e-007
1.767867e-007
1.767866e-007
1.767866e-007
1.767866e-007
1.767866e-007
1.767866e-007
1.767866e-007
1.767866e-007
1.767866e-007
1.767866e-007
1.767866e-007
1.767866e-007
1.767866e-007
1.767866e-007
1.767866e-007
1.767866e-007
1.767866e-007
1.767866e-007
1.767866e-007
1.767866e-007
1.767866e-007
1.767866e-007
1.767866e-007
1.767866e-007
1.767866e-007
1.767866e-007
1.767866e-007
1.767866e-007
1.767866e-007
1.767866e-007
1.767866e-007
1.767866e-007
1.767866e-007
1.767865e-007
1.767862e-007
1.767847e-007
1.767782e-007
1.767525e-007
1.766580e-007
1.763330e-007
1.752757e-007
1.719841e-007
1.620612e-007
1.327795e-007
1.200000e+001
1.200000e+001
5.142857e+000
2.097619e+000
8.555567e-001
3.489563e-001
1.423289e-001
5.805177e-002
2.367761e-002
9.657418e-003
3.939000e-003
1.606632e-003
6.553323e-004
2.673292e-004
1.090772e-004
4.453337e-005
1.820964e-005
7.474279e-006
3.096542e-006
1.311595e-006
5.839576e-007
2.874193e-007
1.666180e-007
1.174339e-007
9.742329e-008
8.928957e-008
8.598738e-008
8.464868e-008
8.410693e-008
8.388815e-008
8.380001e-008
8.376459e-008
8.375041e-008
8.374475e-008
8.374249e-008
8.374160e-008
8.374125e-008
8.374111e-008
8.374106e-008
8.374104e-008
8.374103e-008
8.374103e-008
8.374102e-008
8.374102e-008
8.374102e-008
8.374102e-008
8.374102e-008
8.374102e-008
8.374102e-008
8.374102e-008
8.374102e-008
8.374102e-008
8.374102e-008
8.374102e-008
8.374102e-008
8.374102e-008
8.374102e-008
8.374102e-008
8.374102e-008
8.374102e-008
8.374102e-008
8.374102e-008
8.374102e-008
8.374102e-008
8.374102e-008
8.374102e-008
8.374102e-008
8.374102e-008
8.374102e-008
8.374102e-008
8.374098e-008
8.374080e-008
8.373999e-008
8.373661e-008
8.372357e-008
8.367671e-008
8.351835e-008
8.300960e-008
8.143871e-008
7.672579e-008
6.285160e-008
1.200000e+001
1.200000e+001
5.142857e+000
2.097619e+000
8.555567e-001
3.489563e-001
1.423289e-001
5.805176e-002
2.367760e-002
9.657401e-003
3.938979e-003
1.606607e-003
6.553030e-004
2.672963e-004
1.090414e-004
4.449516e-005
1.816961e-005
7.432905e-006
3.054220e-006
1.268626e-006
5.405608e-007