# vtk DataFile Version 3.0
9 points difference shceme(2-order bound)_
ASCII
DATASET STRUCTURED_POINTS
DIMENSIONS 41 41 1
ORIGIN 0.0 0.0 0.0
SPACING 0.025 0.025 1.0
POINT_DATA 1681
SCALARS Temperature double 1
LOOKUP_TABLE default
1.000000e+001
1.000000e+001
1.000000e+001
1.000000e+001
1.000000e+001
1.000000e+001
1.000000e+001
1.000000e+001
1.000000e+001
1.000000e+001
1.000000e+001
1.000000e+001
1.000000e+001
1.000000e+001
1.000000e+001
1.000000e+001
1.000000e+001
1.000000e+001
1.000000e+001
1.000000e+001
1.000000e+001
1.000000e+001
1.000000e+001
1.000000e+001
1.000000e+001
1.000000e+001
1.000000e+001
1.000000e+001
1.000000e+001
1.000000e+001
1.000000e+001
1.000000e+001
1.000000e+001
1.000000e+001
1.000000e+001
1.000000e+001
1.000000e+001
1.000000e+001
1.000000e+001
1.000000e+001
1.000000e+001
1.000000e+001
1.000053e+001
1.000106e+001
1.000159e+001
1.000210e+001
1.000261e+001
1.000309e+001
1.000356e+001
1.000400e+001
1.000442e+001
1.000481e+001
1.000518e+001
1.000551e+001
1.000580e+001
1.000607e+001
1.000629e+001
1.000647e+001
1.000662e+001
1.000672e+001
1.000679e+001
1.000681e+001
1.000679e+001
1.000672e+001
1.000662e+001
1.000647e+001
1.000629e+001
1.000607e+001
1.000580e+001
1.000551e+001
1.000518e+001
1.000481e+001
1.000442e+001
1.000400e+001
1.000356e+001
1.000309e+001
1.000261e+001
1.000210e+001
1.000159e+001
1.000106e+001
1.000053e+001
1.000000e+001
1.000000e+001
1.000107e+001
1.000214e+001
1.000319e+001
1.000422e+001
1.000523e+001
1.000620e+001
1.000714e+001
1.000803e+001
1.000887e+001
1.000966e+001
1.001039e+001
1.001105e+001
1.001164e+001
1.001217e+001
1.001262e+001
1.001299e+001
1.001328e+001
1.001349e+001
1.001362e+001
1.001366e+001
1.001362e+001
1.001349e+001
1.001328e+001
1.001299e+001
1.001262e+001
1.001217e+001
1.001164e+001
1.001105e+001
1.001039e+001
1.000966e+001
1.000887e+001
1.000803e+001
1.000714e+001
1.000620e+001
1.000523e+001
1.000422e+001
1.000319e+001
1.000214e+001
1.000107e+001
1.000000e+001
1.000000e+001
1.000162e+001
1.000322e+001
1.000481e+001
1.000636e+001
1.000788e+001
1.000935e+001
1.001076e+001
1.001210e+001
1.001337e+001
1.001456e+001
1.001566e+001
1.001666e+001
1.001756e+001
1.001835e+001
1.001902e+001
1.001958e+001
1.002002e+001
1.002034e+001
1.002053e+001
1.002059e+001
1.002053e+001
1.002034e+001
1.002002e+001
1.001958e+001
1.001902e+001
1.001835e+001
1.001756e+001
1.001666e+001
1.001566e+001
1.001456e+001
1.001337e+001
1.001210e+001
1.001076e+001
1.000935e+001
1.000788e+001
1.000636e+001
1.000481e+001
1.000322e+001
1.000162e+001
1.000000e+001
1.000000e+001
1.000217e+001
1.000433e+001
1.000646e+001
1.000855e+001
1.001058e+001
1.001255e+001
1.001445e+001
1.001625e+001
1.001796e+001
1.001955e+001
1.002103e+001
1.002237e+001
1.002358e+001
1.002464e+001
1.002555e+001
1.002630e+001
1.002689e+001
1.002731e+001
1.002757e+001
1.002765e+001
1.002757e+001
1.002731e+001
1.002689e+001
1.002630e+001
1.002555e+001
1.002464e+001
1.002358e+001
1.002237e+001
1.002103e+001
1.001955e+001
1.001796e+001
1.001625e+001
1.001445e+001
1.001255e+001
1.001058e+001
1.000855e+001
1.000646e+001
1.000433e+001
1.000217e+001
1.000000e+001
1.000000e+001
1.000274e+001
1.000546e+001
1.000814e+001
1.001078e+001
1.001335e+001
1.001584e+001
1.001823e+001
1.002050e+001
1.002266e+001
1.002467e+001
1.002653e+001
1.002822e+001
1.002974e+001
1.003108e+001
1.003223e+001
1.003318e+001
1.003392e+001
1.003446e+001
1.003478e+001
1.003488e+001
1.003478e+001
1.003446e+001
1.003392e+001
1.003318e+001
1.003223e+001
1.003108e+001
1.002974e+001
1.002822e+001
1.002653e+001
1.002467e+001
1.002266e+001
1.002050e+001
1.001823e+001
1.001584e+001
1.001335e+001
1.001078e+001
1.000814e+001
1.000546e+001
1.000274e+001
1.000000e+001
1.000000e+001
1.000332e+001
1.000662e+001
1.000988e+001
1.001308e+001
1.001620e+001
1.001922e+001
1.002212e+001
1.002488e+001
1.002749e+001
1.002993e+001
1.003219e+001
1.003425e+001
1.003609e+001
1.003772e+001
1.003911e+001
1.004026e+001
1.004116e+001
1.004181e+001
1.004220e+001
1.004233e+001
1.004220e+001
1.004181e+001
1.004116e+001
1.004026e+001
1.003911e+001
1.003772e+001
1.003609e+001
1.003425e+001
1.003219e+001
1.002993e+001
1.002749e+001
1.002488e+001
1.002212e+001
1.001922e+001
1.001620e+001
1.001308e+001
1.000988e+001
1.000662e+001
1.000332e+001
1.000000e+001
1.000000e+001
1.000393e+001
1.000783e+001
1.001168e+001
1.001546e+001
1.001915e+001
1.002272e+001
1.002615e+001
1.002941e+001
1.003250e+001
1.003538e+001
1.003805e+001
1.004048e+001
1.004267e+001
1.004459e+001
1.004623e+001
1.004759e+001
1.004866e+001
1.004942e+001
1.004989e+001
1.005004e+001
1.004989e+001
1.004942e+001
1.004866e+001
1.004759e+001
1.004623e+001
1.004459e+001
1.004267e+001
1.004048e+001
1.003805e+001
1.003538e+001
1.003250e+001
1.002941e+001
1.002615e+001
1.002272e+001
1.001915e+001
1.001546e+001
1.001168e+001
1.000783e+001
1.000393e+001
1.000000e+001
1.000000e+001
1.000456e+001
1.000908e+001
1.001355e+001
1.001794e+001
1.002222e+001
1.002636e+001
1.003033e+001
1.003413e+001
1.003771e+001
1.004105e+001
1.004415e+001
1.004697e+001
1.004950e+001
1.005173e+001
1.005364e+001
1.005522e+001
1.005645e+001
1.005734e+001
1.005788e+001
1.005806e+001
1.005788e+001
1.005734e+001
1.005645e+001
1.005522e+001
1.005364e+001
1.005173e+001
1.004950e+001
1.004697e+001
1.004415e+001
1.004105e+001
1.003771e+001
1.003413e+001
1.003033e+001
1.002636e+001
1.002222e+001
1.001794e+001
1.001355e+001
1.000908e+001
1.000456e+001
1.000000e+001
1.000000e+001
1.000521e+001
1.001039e+001
1.001551e+001
1.002053e+001
1.002542e+001
1.003016e+001
1.003471e+001
1.003905e+001
1.004314e+001
1.004698e+001
1.005052e+001
1.005375e+001
1.005664e+001
1.005919e+001
1.006138e+001
1.006318e+001
1.006460e+001
1.006561e+001
1.006623e+001
1.006643e+001
1.006623e+001
1.006561e+001
1.006460e+001
1.006318e+001
1.006138e+001
1.005919e+001
1.005664e+001
1.005375e+001
1.005052e+001
1.004698e+001
1.004314e+001
1.003905e+001
1.003471e+001
1.003016e+001
1.002542e+001
1.002053e+001
1.001551e+001
1.001039e+001
1.000521e+001
1.000000e+001
1.000000e+001
1.000590e+001
1.001177e+001
1.001756e+001
1.002324e+001
1.002878e+001
1.003415e+001
1.003930e+001
1.004421e+001
1.004885e+001
1.005319e+001
1.005720e+001
1.006085e+001
1.006413e+001
1.006702e+001
1.006949e+001
1.007154e+001
1.007314e+001
1.007429e+001
1.007499e+001
1.007522e+001
1.007499e+001
1.007429e+001
1.007314e+001
1.007154e+001
1.006949e+001
1.006702e+001
1.006413e+001
1.006085e+001
1.005720e+001
1.005319e+001
1.004885e+001
1.004421e+001
1.003930e+001
1.003415e+001
1.002878e+001
1.002324e+001
1.001756e+001
1.001177e+001
1.000590e+001
1.000000e+001
1.000000e+001
1.000663e+001
1.001321e+001
1.001972e+001
1.002610e+001
1.003232e+001
1.003835e+001
1.004413e+001
1.004965e+001
1.005486e+001
1.005973e+001
1.006423e+001
1.006834e+001
1.007202e+001
1.007526e+001
1.007804e+001
1.008033e+001
1.008213e+001
1.008343e+001
1.008421e+001
1.008447e+001
1.008421e+001
1.008343e+001
1.008213e+001
1.008033e+001
1.007804e+001
1.007526e+001
1.007202e+001
1.006834e+001
1.006423e+001
1.005973e+001
1.005486e+001
1.004965e+001
1.004413e+001
1.003835e+001
1.003232e+001
1.002610e+001
1.001972e+001
1.001321e+001
1.000663e+001
1.000000e+001
1.000000e+001
1.000739e+001
1.001474e+001
1.002200e+001
1.002912e+001
1.003606e+001
1.004278e+001
1.004924e+001
1.005539e+001
1.006120e+001
1.006664e+001
1.007166e+001
1.007624e+001
1.008035e+001
1.008397e+001
1.008707e+001
1.008963e+001
1.009164e+001
1.009308e+001
1.009395e+001
1.009424e+001
1.009395e+001
1.009308e+001
1.009164e+001
1.008963e+001
1.008707e+001
1.008397e+001
1.008035e+001
1.007624e+001
1.007166e+001
1.006664e+001
1.006120e+001
1.005539e+001
1.004924e+001
1.004278e+001
1.003606e+001
1.002912e+001
1.002200e+001
1.001474e+001
1.000739e+001
1.000000e+001
1.000000e+001
1.000821e+001
1.001636e+001
1.002442e+001
1.003232e+001
1.004003e+001
1.004748e+001
1.005465e+001
1.006148e+001
1.006793e+001
1.007396e+001
1.007953e+001
1.008462e+001
1.008918e+001
1.009319e+001
1.009663e+001
1.009947e+001
1.010170e+001
1.010330e+001
1.010427e+001
1.010459e+001
1.010427e+001
1.010330e+001
1.010170e+001
1.009947e+001
1.009663e+001
1.009319e+001
1.008918e+001
1.008462e+001
1.007953e+001
1.007396e+001
1.006793e+001
1.006148e+001
1.005465e+001
1.004748e+001
1.004003e+001
1.003232e+001
1.002442e+001
1.001636e+001
1.000821e+001
1.000000e+001
1.000000e+001
1.000907e+001
1.001808e+001
1.002698e+001
1.003572e+001
1.004423e+001
1.005248e+001
1.006040e+001
1.006794e+001
1.007507e+001
1.008173e+001
1.008790e+001
1.009351e+001
1.009856e+001
1.010299e+001
1.010679e+001
1.010993e+001
1.011240e+001
1.011417e+001
1.011523e+001
1.011559e+001
1.011523e+001
1.011417e+001
1.011240e+001
1.010993e+001
1.010679e+001
1.010299e+001
1.009856e+001
1.009351e+001
1.008790e+001
1.008173e+001
1.007507e+001
1.006794e+001
1.006040e+001
1.005248e+001
1.004423e+001
1.003572e+001
1.002698e+001
1.001808e+001
1.000907e+001
1.000000e+001
1.000000e+001
1.000999e+001
1.001991e+001
1.002972e+001
1.003934e+001
1.004872e+001
1.005779e+001
1.006651e+001
1.007483e+001
1.008268e+001
1.009002e+001
1.009680e+001
1.010299e+001
1.010854e+001
1.011343e+001
1.011761e+001
1.012107e+001
1.012378e+001
1.012573e+001
1.012691e+001
1.012730e+001
1.012691e+001
1.012573e+001
1.012378e+001
1.012107e+001
1.011761e+001
1.011343e+001
1.010854e+001
1.010299e+001
1.009680e+001
1.009002e+001
1.008268e+001
1.007483e+001
1.006651e+001
1.005779e+001
1.004872e+001
1.003934e+001
1.002972e+001
1.001991e+001
1.000999e+001
1.000000e+001
1.000000e+001
1.001097e+001
1.002187e+001
1.003264e+001
1.004320e+001
1.005350e+001
1.006347e+001
1.007304e+001
1.008217e+001
1.009079e+001
1.009885e+001
1.010630e+001
1.011310e+001
1.011920e+001
1.012456e+001
1.012916e+001
1.013296e+001
1.013594e+001
1.013808e+001
1.013937e+001
1.013980e+001
1.013937e+001
1.013808e+001
1.013594e+001
1.013296e+001
1.012916e+001
1.012456e+001
1.011920e+001
1.011310e+001
1.010630e+001
1.009885e+001
1.009079e+001
1.008217e+001
1.007304e+001
1.006347e+001
1.005350e+001
1.004320e+001
1.003264e+001
1.002187e+001
1.001097e+001
1.000000e+001
1.000000e+001
1.001202e+001
1.002396e+001
1.003575e+001
1.004733e+001
1.005861e+001
1.006953e+001
1.008003e+001
1.009002e+001
1.009947e+001
1.010830e+001
1.011646e+001
1.012391e+001
1.013059e+001
1.013647e+001
1.014150e+001
1.014566e+001
1.014893e+001
1.015127e+001
1.015269e+001
1.015316e+001
1.015269e+001
1.015127e+001
1.014893e+001
1.014566e+001
1.014150e+001
1.013647e+001
1.013059e+001
1.012391e+001
1.011646e+001
1.010830e+001
1.009947e+001
1.009002e+001
1.008003e+001
1.006953e+001
1.005861e+001
1.004733e+001
1.003575e+001
1.002396e+001
1.001202e+001
1.000000e+001
1.000000e+001
1.001314e+001
1.002620e+001
1.003909e+001
1.005175e+001
1.006409e+001
1.007603e+001
1.008750e+001
1.009843e+001
1.010876e+001
1.011841e+001
1.012734e+001
1.013548e+001
1.014279e+001
1.014921e+001
1.015472e+001
1.015927e+001
1.016284e+001
1.016540e+001
1.016695e+001
1.016746e+001
1.016695e+001
1.016540e+001
1.016284e+001
1.015927e+001
1.015472e+001
1.014921e+001
1.014279e+001
1.013548e+001
1.012734e+001
1.011841e+001
1.010876e+001
1.009843e+001
1.008750e+001
1.007603e+001
1.006409e+001
1.005175e+001
1.003909e+001
1.002620e+001
1.001314e+001
1.000000e+001
1.000000e+001
1.001434e+001
1.002860e+001
1.004267e+001
1.005649e+001
1.006996e+001
1.008299e+001
1.009551e+001
1.010745e+001
1.011872e+001
1.012926e+001
1.013900e+001
1.014789e+001
1.015586e+001
1.016288e+001
1.016889e+001
1.017386e+001
1.017775e+001
1.018055e+001
1.018224e+001
1.018280e+001
1.018224e+001
1.018055e+001
1.017775e+001
1.017386e+001
1.016889e+001
1.016288e+001
1.015586e+001
1.014789e+001
1.013900e+001
1.012926e+001
1.011872e+001
1.010745e+001
1.009551e+001
1.008299e+001
1.006996e+001
1.005649e+001
1.004267e+001
1.002860e+001
1.001434e+001
1.000000e+001
1.000000e+001
1.001563e+001
1.003117e+001
1.004652e+001
1.006158e+001
1.007626e+001
1.009047e+001
1.010412e+001
1.011713e+001
1.012942e+001
1.014090e+001
1.015153e+001
1.016121e+001
1.016991e+001
1.017755e+001
1.018410e+001
1.018952e+001
1.019376e+001
1.019682e+001
1.019866e+001
1.019927e+001
1.019866e+001
1.019682e+001
1.019376e+001
1.018952e+001
1.018410e+001
1.017755e+001
1.016991e+001
1.016121e+001
1.015153e+001
1.014090e+001
1.012942e+001
1.011713e+001
1.010412e+001
1.009047e+001
1.007626e+001
1.006158e+001
1.004652e+001
1.003117e+001
1.001563e+001
1.000000e+001
1.000000e+001
1.001702e+001
1.003394e+001
1.005065e+001
1.006705e+001
1.008303e+001
1.009850e+001
1.011336e+001
1.012753e+001
1.014091e+001
1.015342e+001
1.016498e+001
1.017553e+001
1.018499e+001
1.019332e+001
1.020045e+001
1.020635e+001
1.021097e+001
1.021430e+001
1.021630e+001
1.021697e+001
1.021630e+001
1.021430e+001
1.021097e+001
1.020635e+001
1.020045e+001
1.019332e+001
1.018499e+001
1.017553e+001
1.016498e+001
1.015342e+001
1.014091e+001
1.012753e+001
1.011336e+001
1.009850e+001
1.008303e+001
1.006705e+001
1.005065e+001
1.003394e+001
1.001702e+001
1.000000e+001
1.000000e+001
1.001852e+001
1.003692e+001
1.005509e+001
1.007293e+001
1.009031e+001
1.010714e+001
1.012331e+001
1.013872e+001
1.015327e+001
1.016688e+001
1.017946e+001
1.019093e+001
1.020123e+001
1.021028e+001
1.021804e+001
1.022445e+001
1.022948e+001
1.023310e+001
1.023527e+001
1.023600e+001
1.023527e+001
1.023310e+001
1.022948e+001
1.022445e+001
1.021804e+001
1.021028e+001
1.020123e+001
1.019093e+001
1.017946e+001
1.016688e+001
1.015327e+001
1.013872e+001
1.012331e+001
1.010714e+001
1.009031e+001
1.007293e+001
1.005509e+001
1.003692e+001
1.001852e+001
1.000000e+001
1.000000e+001
1.002012e+001
1.004012e+001
1.005988e+001
1.007926e+001
1.009816e+001
1.011645e+001
1.013402e+001
1.015076e+001
1.016658e+001
1.018137e+001
1.019504e+001
1.020751e+001
1.021870e+001
1.022854e+001
1.023697e+001
1.024394e+001
1.024941e+001
1.025334e+001
1.025570e+001
1.025649e+001
1.025570e+001
1.025334e+001
1.024941e+001
1.024394e+001
1.023697e+001
1.022854e+001
1.021870e+001
1.020751e+001
1.019504e+001
1.018137e+001
1.016658e+001
1.015076e+001
1.013402e+001
1.011645e+001
1.009816e+001
1.007926e+001
1.005988e+001
1.004012e+001
1.002012e+001
1.000000e+001
1.000000e+001
1.002186e+001
1.004358e+001
1.006503e+001
1.008608e+001
1.010660e+001
1.012647e+001
1.014555e+001
1.016374e+001
1.018092e+001
1.019698e+001
1.021183e+001
1.022537e+001
1.023752e+001
1.024821e+001
1.025737e+001
1.026494e+001
1.027087e+001
1.027514e+001
1.027771e+001
1.027857e+001
1.027771e+001
1.027514e+001
1.027087e+001
1.026494e+001
1.025737e+001
1.024821e+001
1.023752e+001
1.022537e+001
1.021183e+001
1.019698e+001
1.018092e+001
1.016374e+001
1.014555e+001
1.012647e+001
1.010660e+001
1.008608e+001
1.006503e+001
1.004358e+001
1.002186e+001
1.000000e+001
1.000000e+001
1.002372e+001
1.004730e+001
1.007059e+001
1.009344e+001
1.011571e+001
1.013727e+001
1.015799e+001
1.017773e+001
1.019637e+001
1.021380e+001
1.022992e+001
1.024462e+001
1.025781e+001
1.026941e+001
1.027935e+001
1.028757e+001
1.029401e+001
1.029864e+001
1.030143e+001
1.030236e+001
1.030143e+001
1.029864e+001
1.029401e+001
1.028757e+001
1.027935e+001
1.026941e+001
1.025781e+001
1.024462e+001
1.022992e+001
1.021380e+001
1.019637e+001
1.017773e+001
1.015799e+001
1.013727e+001
1.011571e+001
1.009344e+001
1.007059e+001
1.004730e+001
1.002372e+001
1.000000e+001
1.000000e+001
1.002574e+001
1.005131e+001
1.007658e+001
1.010137e+001
1.012553e+001
1.014892e+001
1.017139e+001
1.019281e+001
1.021304e+001
1.023195e+001
1.024943e+001
1.026538e+001
1.027969e+001
1.029227e+001
1.030306e+001
1.031197e+001
1.031896e+001
1.032399e+001
1.032701e+001
1.032803e+001
1.032701e+001
1.032399e+001
1.031896e+001
1.031197e+001
1.030306e+001
1.029227e+001
1.027969e+001
1.026538e+001
1.024943e+001
1.023195e+001
1.021304e+001
1.019281e+001
1.017139e+001
1.014892e+001
1.012553e+001
1.010137e+001
1.007658e+001
1.005131e+001
1.002574e+001
1.000000e+001
1.000000e+001
1.002791e+001
1.005565e+001
1.008304e+001
1.010992e+001
1.013612e+001
1.016149e+001
1.018586e+001
1.020908e+001
1.023102e+001
1.025153e+001
1.027048e+001
1.028778e+001
1.030329e+001
1.031694e+001
1.032863e+001
1.033830e+001
1.034588e+001
1.035133e+001
1.035461e+001
1.035571e+001
1.035461e+001
1.035133e+001
1.034588e+001
1.033830e+001
1.032863e+001
1.031694e+001
1.030329e+001
1.028778e+001
1.027048e+001
1.025153e+001
1.023102e+001
1.020908e+001
1.018586e+001
1.016149e+001
1.013612e+001
1.010992e+001
1.008304e+001
1.005565e+001
1.002791e+001
1.000000e+001
1.000000e+001
1.003025e+001
1.006032e+001
1.009001e+001
1.011915e+001
1.014756e+001
1.017505e+001
1.020147e+001
1.022664e+001
1.025042e+001
1.027265e+001
1.029321e+001
1.031195e+001
1.032877e+001
1.034356e+001
1.035624e+001
1.036672e+001
1.037494e+001
1.038084e+001
1.038440e+001
1.038559e+001
1.038440e+001
1.038084e+001
1.037494e+001
1.036672e+001
1.035624e+001
1.034356e+001
1.032877e+001
1.031195e+001
1.029321e+001
1.027265e+001
1.025042e+001
1.022664e+001
1.020147e+001
1.017505e+001
1.014756e+001
1.011915e+001
1.009001e+001
1.006032e+001
1.003025e+001
1.000000e+001
1.000000e+001
1.003278e+001
1.006537e+001
1.009755e+001
1.012912e+001
1.015990e+001
1.018970e+001
1.021833e+001
1.024561e+001
1.027137e+001
1.029547e+001
1.031774e+001
1.033805e+001
1.035628e+001
1.037231e+001
1.038604e+001
1.039740e+001
1.040631e+001
1.041271e+001
1.041656e+001
1.041785e+001
1.041656e+001
1.041271e+001
1.040631e+001
1.039740e+001
1.038604e+001
1.037231e+001
1.035628e+001
1.033805e+001
1.031774e+001
1.029547e+001
1.027137e+001
1.024561e+001
1.021833e+001
1.018970e+001
1.015990e+001
1.012912e+001
1.009755e+001
1.006537e+001
1.003278e+001
1.000000e+001
1.000000e+001
1.003552e+001
1.007082e+001
1.010568e+001
1.013989e+001
1.017324e+001
1.020552e+001
1.023653e+001
1.026608e+001
1.029400e+001
1.032010e+001
1.034423e+001
1.036623e+001
1.038598e+001
1.040335e+001
1.041823e+001
1.043053e+001
1.044018e+001
1.044712e+001
1.045129e+001
1.045269e+001
1.045129e+001
1.044712e+001
1.044018e+001
1.043053e+001
1.041823e+001
1.040335e+001
1.038598e+001
1.036623e+001
1.034423e+001
1.032010e+001
1.029400e+001
1.026608e+001
1.023653e+001
1.020552e+001
1.017324e+001
1.013989e+001
1.010568e+001
1.007082e+001
1.003552e+001
1.000000e+001
1.000000e+001
1.003847e+001
1.007670e+001
1.011446e+001
1.015152e+001
1.018764e+001
1.022260e+001
1.025619e+001
1.028820e+001
1.031844e+001
1.034671e+001
1.037284e+001
1.039668e+001
1.041807e+001
1.043688e+001
1.045300e+001
1.046633e+001
1.047678e+001
1.048429e+001
1.048881e+001
1.049032e+001
1.048881e+001
1.048429e+001
1.047678e+001
1.046633e+001
1.045300e+001
1.043688e+001
1.041807e+001
1.039668e+001
1.037284e+001
1.034671e+001
1.031844e+001
1.028820e+001
1.025619e+001
1.022260e+001
1.018764e+001
1.015152e+001
1.011446e+001
1.007670e+001
1.003847e+001
1.000000e+001
1.000000e+001
1.004166e+001
1.008306e+001
1.012396e+001
1.016408e+001
1.020320e+001
1.024106e+001
1.027744e+001
1.031210e+001
1.034485e+001
1.037546e+001
1.040376e+001
1.042957e+001
1.045274e+001
1.047311e+001
1.049056e+001
1.050499e+001
1.051631e+001
1.052445e+001
1.052935e+001
1.053098e+001
1.052935e+001
1.052445e+001
1.051631e+001
1.050499e+001
1.049056e+001
1.047311e+001
1.045274e+001
1.042957e+001
1.040376e+001
1.037546e+001
1.034485e+001
1.031210e+001
1.027744e+001
1.024106e+001
1.020320e+001
1.016408e+001
1.012396e+001
1.008306e+001
1.004166e+001
1.000000e+001
1.000000e+001
1.004511e+001
1.008994e+001
1.013421e+001
1.017766e+001
1.022001e+001
1.026101e+001
1.030039e+001
1.033793e+001
1.037338e+001
1.040653e+001
1.043717e+001
1.046512e+001
1.049020e+001
1.051226e+001
1.053116e+001
1.054678e+001
1.055903e+001
1.056784e+001
1.057315e+001
1.057492e+001
1.057315e+001
1.056784e+001
1.055903e+001
1.054678e+001
1.053116e+001
1.051226e+001
1.049020e+001
1.046512e+001
1.043717e+001
1.040653e+001
1.037338e+001
1.033793e+001
1.030039e+001
1.026101e+001
1.022001e+001
1.017766e+001
1.013421e+001
1.008994e+001
1.004511e+001
1.000000e+001
1.000000e+001
1.004883e+001
1.009737e+001
1.014530e+001
1.019233e+001
1.023818e+001
1.028257e+001
1.032520e+001
1.036584e+001
1.040422e+001
1.044011e+001
1.047328e+001
1.050353e+001
1.053069e+001
1.055456e+001
1.057503e+001
1.059194e+001
1.060521e+001
1.061474e+001
1.062048e+001
1.062240e+001
1.062048e+001
1.061474e+001
1.060521e+001
1.059194e+001
1.057503e+001
1.055456e+001
1.053069e+001
1.050353e+001
1.047328e+001
1.044011e+001
1.040422e+001
1.036584e+001
1.032520e+001
1.028257e+001
1.023818e+001
1.019233e+001
1.014530e+001
1.009737e+001
1.004883e+001
1.000000e+001
1.000000e+001
1.005286e+001
1.010539e+001
1.015728e+001
1.020819e+001
1.025782e+001
1.030587e+001
1.035202e+001
1.039601e+001
1.043755e+001
1.047640e+001
1.051231e+001
1.054506e+001
1.057445e+001
1.060030e+001
1.062244e+001
1.064075e+001
1.065511e+001
1.066543e+001
1.067165e+001
1.067373e+001
1.067165e+001
1.066543e+001
1.065511e+001
1.064075e+001
1.062244e+001
1.060030e+001
1.057445e+001
1.054506e+001
1.051231e+001
1.047640e+001
1.043755e+001
1.039601e+001
1.035202e+001
1.030587e+001
1.025782e+001
1.020819e+001
1.015728e+001
1.010539e+001
1.005286e+001
1.000000e+001
1.000000e+001
1.005721e+001
1.011407e+001
1.017023e+001
1.022534e+001
1.027906e+001
1.033106e+001
1.038101e+001
1.042862e+001
1.047359e+001
1.051563e+001
1.055450e+001
1.058994e+001
1.062176e+001
1.064973e+001
1.067370e+001
1.069352e+001
1.070906e+001
1.072023e+001
1.072696e+001
1.072921e+001
1.072696e+001
1.072023e+001
1.070906e+001
1.069352e+001
1.067370e+001
1.064973e+001
1.062176e+001
1.058994e+001
1.055450e+001
1.051563e+001
1.047359e+001
1.042862e+001
1.038101e+001
1.033106e+001
1.027906e+001
1.022534e+001
1.017023e+001
1.011407e+001
1.005721e+001
1.000000e+001
1.000000e+001
1.006192e+001
1.012346e+001
1.018423e+001
1.024388e+001
1.030201e+001
1.035829e+001
1.041235e+001
1.046388e+001
1.051254e+001
1.055805e+001
1.060011e+001
1.063847e+001
1.067290e+001
1.070318e+001
1.072912e+001
1.075057e+001
1.076739e+001
1.077948e+001
1.078676e+001
1.078920e+001
1.078676e+001
1.077948e+001
1.076739e+001
1.075057e+001
1.072912e+001
1.070318e+001
1.067290e+001
1.063847e+001
1.060011e+001
1.055805e+001
1.051254e+001
1.046388e+001
1.041235e+001
1.035829e+001
1.030201e+001
1.024388e+001
1.018423e+001
1.012346e+001
1.006192e+001
1.000000e+001
1.000000e+001
1.006701e+001
1.013360e+001
1.019937e+001
1.026392e+001
1.032683e+001
1.038773e+001
1.044624e+001
1.050200e+001
1.055466e+001
1.060391e+001
1.064943e+001
1.069094e+001
1.072820e+001
1.076096e+001
1.078904e+001
1.081225e+001
1.083045e+001
1.084354e+001
1.085142e+001
1.085405e+001
1.085142e+001
1.084354e+001
1.083045e+001
1.081225e+001
1.078904e+001
1.076096e+001
1.072820e+001
1.069094e+001
1.064943e+001
1.060391e+001
1.055466e+001
1.050200e+001
1.044624e+001
1.038773e+001
1.032683e+001
1.026392e+001
1.019937e+001
1.013360e+001
1.006701e+001
1.000000e+001
1.000000e+001
1.007251e+001
1.014457e+001
1.021574e+001
1.028559e+001
1.035367e+001
1.041957e+001
1.048288e+001
1.054322e+001
1.060020e+001
1.065349e+001
1.070275e+001
1.074767e+001
1.078799e+001
1.082345e+001
1.085383e+001
1.087894e+001
1.089864e+001
1.091280e+001
1.092133e+001
1.092418e+001
1.092133e+001
1.091280e+001
1.089864e+001
1.087894e+001
1.085383e+001
1.082345e+001
1.078799e+001
1.074767e+001
1.070275e+001
1.065349e+001
1.060020e+001
1.054322e+001
1.048288e+001
1.041957e+001
1.035367e+001
1.028559e+001
1.021574e+001
1.014457e+001
1.007251e+001
1.000000e+001
1.000000e+001
1.007846e+001
1.015643e+001
1.023345e+001
1.030902e+001
1.038268e+001
1.045399e+001
1.052250e+001
1.058779e+001
1.064945e+001
1.070711e+001
1.076041e+001
1.080902e+001
1.085264e+001
1.089101e+001
1.092388e+001
1.095106e+001
1.097237e+001
1.098769e+001
1.099692e+001
1.100000e+001
1.099692e+001
1.098769e+001
1.097237e+001
1.095106e+001
1.092388e+001
1.089101e+001
1.085264e+001
1.080902e+001
1.076041e+001
1.070711e+001
1.064945e+001
1.058779e+001
1.052250e+001
1.045399e+001
1.038268e+001
1.030902e+001
1.023345e+001
1.015643e+001
1.007846e+001
1.000000e+001
