# vtk DataFile Version 3.0
steady_diffusion_2D
ASCII
DATASET STRUCTURED_POINTS
DIMENSIONS 11 11 1
ORIGIN 0.0 0.0 0.0
SPACING 0.1 0.1 1.0
POINT_DATA 121
SCALARS Temperature double 1
LOOKUP_TABLE default
1.500000e+001
1.500000e+001
1.500000e+001
1.500000e+001
1.500000e+001
1.500000e+001
1.500000e+001
1.500000e+001
1.500000e+001
1.500000e+001
1.500000e+001
1.500000e+001
1.125000e+001
9.843750e+000
9.316406e+000
9.118652e+000
9.044495e+000
9.016685e+000
9.006257e+000
9.002346e+000
9.000880e+000
1.500000e+001
1.500000e+001
9.843750e+000
7.382812e+000
6.262207e+000
5.767822e+000
5.554619e+000
5.464239e+000
5.426436e+000
5.410793e+000
5.404377e+000
1.500000e+001
1.500000e+001
9.316406e+000
6.262207e+000
4.696655e+000
3.924179e+000
3.554549e+000
3.382046e+000
3.303181e+000
3.267740e+000
3.252044e+000
1.500000e+001
1.500000e+001
9.118652e+000
5.767822e+000
3.924179e+000
2.943134e+000
2.436631e+000
2.182004e+000
2.056944e+000
1.996757e+000
1.968300e+000
1.500000e+001
1.500000e+001
9.044495e+000
5.554619e+000
3.554549e+000
2.436631e+000
1.827473e+000
1.503554e+000
1.335187e+000
1.249479e+000
1.206667e+000
1.500000e+001
1.500000e+001
9.016685e+000
5.464239e+000
3.382046e+000
2.182004e+000
1.503554e+000
1.127666e+000
9.235696e-001
8.148932e-001
7.580851e-001
1.500000e+001
1.500000e+001
9.006257e+000
5.426436e+000
3.303181e+000
2.056944e+000
1.335187e+000
9.235696e-001
6.926772e-001
5.653389e-001
4.962840e-001
1.500000e+001
1.500000e+001
9.002346e+000
5.410793e+000
3.267740e+000
1.996757e+000
1.249479e+000
8.148932e-001
5.653389e-001
4.240042e-001
3.451081e-001
1.500000e+001
1.500000e+001
9.000880e+000
5.404377e+000
3.252044e+000
1.968300e+000
1.206667e+000
7.580851e-001
4.962840e-001
3.451081e-001
2.588310e-001
1.500000e+001
1.500000e+001
1.546353e+001
1.588168e+001
1.621353e+001
1.642658e+001
1.650000e+001
1.642658e+001
1.621353e+001
1.588168e+001
1.546353e+001
1.500000e+001
