# vtk DataFile Version 3.0
steady_diffusion_2D
ASCII
DATASET STRUCTURED_POINTS
DIMENSIONS 41 41 1
ORIGIN 0.0 0.0 0.0
SPACING 0.025 0.025 1.0
POINT_DATA 1681
SCALARS Temperature double 1
LOOKUP_TABLE default
1.000000e+001
1.000000e+001
1.000000e+001
1.000000e+001
1.000000e+001
1.000000e+001
1.000000e+001
1.000000e+001
1.000000e+001
1.000000e+001
1.000000e+001
1.000000e+001
1.000000e+001
1.000000e+001
1.000000e+001
1.000000e+001
1.000000e+001
1.000000e+001
1.000000e+001
1.000000e+001
1.000000e+001
1.000000e+001
1.000000e+001
1.000000e+001
1.000000e+001
1.000000e+001
1.000000e+001
1.000000e+001
1.000000e+001
1.000000e+001
1.000000e+001
1.000000e+001
1.000000e+001
1.000000e+001
1.000000e+001
1.000000e+001
1.000000e+001
1.000000e+001
1.000000e+001
1.000000e+001
1.000000e+001
1.000000e+001
1.000053e+001
1.000107e+001
1.000159e+001
1.000211e+001
1.000261e+001
1.000309e+001
1.000356e+001
1.000401e+001
1.000443e+001
1.000482e+001
1.000518e+001
1.000551e+001
1.000581e+001
1.000607e+001
1.000630e+001
1.000648e+001
1.000663e+001
1.000673e+001
1.000679e+001
1.000682e+001
1.000679e+001
1.000673e+001
1.000663e+001
1.000648e+001
1.000630e+001
1.000607e+001
1.000581e+001
1.000551e+001
1.000518e+001
1.000482e+001
1.000443e+001
1.000401e+001
1.000356e+001
1.000309e+001
1.000261e+001
1.000211e+001
1.000159e+001
1.000107e+001
1.000053e+001
1.000000e+001
1.000000e+001
1.000107e+001
1.000214e+001
1.000319e+001
1.000423e+001
1.000523e+001
1.000621e+001
1.000714e+001
1.000804e+001
1.000888e+001
1.000967e+001
1.001040e+001
1.001106e+001
1.001166e+001
1.001218e+001
1.001263e+001
1.001300e+001
1.001329e+001
1.001350e+001
1.001363e+001
1.001367e+001
1.001363e+001
1.001350e+001
1.001329e+001
1.001300e+001
1.001263e+001
1.001218e+001
1.001166e+001
1.001106e+001
1.001040e+001
1.000967e+001
1.000888e+001
1.000804e+001
1.000714e+001
1.000621e+001
1.000523e+001
1.000423e+001
1.000319e+001
1.000214e+001
1.000107e+001
1.000000e+001
1.000000e+001
1.000162e+001
1.000322e+001
1.000481e+001
1.000637e+001
1.000789e+001
1.000936e+001
1.001077e+001
1.001212e+001
1.001339e+001
1.001458e+001
1.001567e+001
1.001668e+001
1.001758e+001
1.001837e+001
1.001904e+001
1.001961e+001
1.002004e+001
1.002036e+001
1.002055e+001
1.002061e+001
1.002055e+001
1.002036e+001
1.002004e+001
1.001961e+001
1.001904e+001
1.001837e+001
1.001758e+001
1.001668e+001
1.001567e+001
1.001458e+001
1.001339e+001
1.001212e+001
1.001077e+001
1.000936e+001
1.000789e+001
1.000637e+001
1.000481e+001
1.000322e+001
1.000162e+001
1.000000e+001
1.000000e+001
1.000217e+001
1.000433e+001
1.000646e+001
1.000855e+001
1.001059e+001
1.001257e+001
1.001446e+001
1.001627e+001
1.001798e+001
1.001957e+001
1.002105e+001
1.002240e+001
1.002360e+001
1.002467e+001
1.002558e+001
1.002633e+001
1.002692e+001
1.002734e+001
1.002760e+001
1.002768e+001
1.002760e+001
1.002734e+001
1.002692e+001
1.002633e+001
1.002558e+001
1.002467e+001
1.002360e+001
1.002240e+001
1.002105e+001
1.001957e+001
1.001798e+001
1.001627e+001
1.001446e+001
1.001257e+001
1.001059e+001
1.000855e+001
1.000646e+001
1.000433e+001
1.000217e+001
1.000000e+001
1.000000e+001
1.000274e+001
1.000546e+001
1.000815e+001
1.001079e+001
1.001336e+001
1.001585e+001
1.001825e+001
1.002053e+001
1.002268e+001
1.002469e+001
1.002655e+001
1.002825e+001
1.002978e+001
1.003112e+001
1.003226e+001
1.003321e+001
1.003396e+001
1.003449e+001
1.003481e+001
1.003492e+001
1.003481e+001
1.003449e+001
1.003396e+001
1.003321e+001
1.003226e+001
1.003112e+001
1.002978e+001
1.002825e+001
1.002655e+001
1.002469e+001
1.002268e+001
1.002053e+001
1.001825e+001
1.001585e+001
1.001336e+001
1.001079e+001
1.000815e+001
1.000546e+001
1.000274e+001
1.000000e+001
1.000000e+001
1.000332e+001
1.000663e+001
1.000989e+001
1.001310e+001
1.001622e+001
1.001924e+001
1.002214e+001
1.002491e+001
1.002752e+001
1.002996e+001
1.003222e+001
1.003428e+001
1.003613e+001
1.003776e+001
1.003915e+001
1.004030e+001
1.004121e+001
1.004185e+001
1.004225e+001
1.004238e+001
1.004225e+001
1.004185e+001
1.004121e+001
1.004030e+001
1.003915e+001
1.003776e+001
1.003613e+001
1.003428e+001
1.003222e+001
1.002996e+001
1.002752e+001
1.002491e+001
1.002214e+001
1.001924e+001
1.001622e+001
1.001310e+001
1.000989e+001
1.000663e+001
1.000332e+001
1.000000e+001
1.000000e+001
1.000393e+001
1.000784e+001
1.001169e+001
1.001548e+001
1.001917e+001
1.002274e+001
1.002617e+001
1.002944e+001
1.003253e+001
1.003542e+001
1.003809e+001
1.004053e+001
1.004271e+001
1.004463e+001
1.004628e+001
1.004764e+001
1.004871e+001
1.004948e+001
1.004994e+001
1.005009e+001
1.004994e+001
1.004948e+001
1.004871e+001
1.004764e+001
1.004628e+001
1.004463e+001
1.004271e+001
1.004053e+001
1.003809e+001
1.003542e+001
1.003253e+001
1.002944e+001
1.002617e+001
1.002274e+001
1.001917e+001
1.001548e+001
1.001169e+001
1.000784e+001
1.000393e+001
1.000000e+001
1.000000e+001
1.000456e+001
1.000909e+001
1.001357e+001
1.001796e+001
1.002224e+001
1.002638e+001
1.003037e+001
1.003416e+001
1.003774e+001
1.004109e+001
1.004419e+001
1.004702e+001
1.004955e+001
1.005178e+001
1.005369e+001
1.005527e+001
1.005651e+001
1.005740e+001
1.005794e+001
1.005812e+001
1.005794e+001
1.005740e+001
1.005651e+001
1.005527e+001
1.005369e+001
1.005178e+001
1.004955e+001
1.004702e+001
1.004419e+001
1.004109e+001
1.003774e+001
1.003416e+001
1.003037e+001
1.002638e+001
1.002224e+001
1.001796e+001
1.001357e+001
1.000909e+001
1.000456e+001
1.000000e+001
1.000000e+001
1.000522e+001
1.001040e+001
1.001552e+001
1.002055e+001
1.002545e+001
1.003019e+001
1.003475e+001
1.003909e+001
1.004319e+001
1.004702e+001
1.005057e+001
1.005380e+001
1.005670e+001
1.005925e+001
1.006144e+001
1.006325e+001
1.006466e+001
1.006568e+001
1.006629e+001
1.006650e+001
1.006629e+001
1.006568e+001
1.006466e+001
1.006325e+001
1.006144e+001
1.005925e+001
1.005670e+001
1.005380e+001
1.005057e+001
1.004702e+001
1.004319e+001
1.003909e+001
1.003475e+001
1.003019e+001
1.002545e+001
1.002055e+001
1.001552e+001
1.001040e+001
1.000522e+001
1.000000e+001
1.000000e+001
1.000591e+001
1.001178e+001
1.001758e+001
1.002327e+001
1.002881e+001
1.003418e+001
1.003934e+001
1.004426e+001
1.004890e+001
1.005324e+001
1.005725e+001
1.006091e+001
1.006420e+001
1.006709e+001
1.006956e+001
1.007161e+001
1.007321e+001
1.007437e+001
1.007506e+001
1.007529e+001
1.007506e+001
1.007437e+001
1.007321e+001
1.007161e+001
1.006956e+001
1.006709e+001
1.006420e+001
1.006091e+001
1.005725e+001
1.005324e+001
1.004890e+001
1.004426e+001
1.003934e+001
1.003418e+001
1.002881e+001
1.002327e+001
1.001758e+001
1.001178e+001
1.000591e+001
1.000000e+001
1.000000e+001
1.000663e+001
1.001323e+001
1.001974e+001
1.002613e+001
1.003236e+001
1.003838e+001
1.004418e+001
1.004970e+001
1.005491e+001
1.005979e+001
1.006429e+001
1.006840e+001
1.007209e+001
1.007533e+001
1.007811e+001
1.008041e+001
1.008221e+001
1.008351e+001
1.008429e+001
1.008455e+001
1.008429e+001
1.008351e+001
1.008221e+001
1.008041e+001
1.007811e+001
1.007533e+001
1.007209e+001
1.006840e+001
1.006429e+001
1.005979e+001
1.005491e+001
1.004970e+001
1.004418e+001
1.003839e+001
1.003236e+001
1.002613e+001
1.001974e+001
1.001323e+001
1.000663e+001
1.000000e+001
1.000000e+001
1.000740e+001
1.001476e+001
1.002202e+001
1.002915e+001
1.003610e+001
1.004282e+001
1.004929e+001
1.005545e+001
1.006126e+001
1.006670e+001
1.007173e+001
1.007631e+001
1.008043e+001
1.008405e+001
1.008715e+001
1.008971e+001
1.009172e+001
1.009317e+001
1.009404e+001
1.009433e+001
1.009404e+001
1.009317e+001
1.009172e+001
1.008971e+001
1.008715e+001
1.008405e+001
1.008043e+001
1.007631e+001
1.007173e+001
1.006670e+001
1.006126e+001
1.005545e+001
1.004929e+001
1.004282e+001
1.003610e+001
1.002915e+001
1.002202e+001
1.001476e+001
1.000740e+001
1.000000e+001
1.000000e+001
1.000821e+001
1.001638e+001
1.002444e+001
1.003235e+001
1.004006e+001
1.004753e+001
1.005470e+001
1.006153e+001
1.006799e+001
1.007403e+001
1.007961e+001
1.008470e+001
1.008926e+001
1.009328e+001
1.009672e+001
1.009956e+001
1.010180e+001
1.010340e+001
1.010437e+001
1.010469e+001
1.010437e+001
1.010340e+001
1.010180e+001
1.009957e+001
1.009672e+001
1.009328e+001
1.008926e+001
1.008470e+001
1.007961e+001
1.007403e+001
1.006799e+001
1.006153e+001
1.005470e+001
1.004753e+001
1.004006e+001
1.003235e+001
1.002444e+001
1.001638e+001
1.000821e+001
1.000000e+001
1.000000e+001
1.000908e+001
1.001810e+001
1.002701e+001
1.003575e+001
1.004427e+001
1.005252e+001
1.006045e+001
1.006800e+001
1.007514e+001
1.008181e+001
1.008797e+001
1.009360e+001
1.009865e+001
1.010308e+001
1.010689e+001
1.011003e+001
1.011250e+001
1.011427e+001
1.011534e+001
1.011569e+001
1.011534e+001
1.011427e+001
1.011250e+001
1.011003e+001
1.010689e+001
1.010308e+001
1.009865e+001
1.009360e+001
1.008797e+001
1.008181e+001
1.007514e+001
1.006800e+001
1.006045e+001
1.005252e+001
1.004427e+001
1.003575e+001
1.002701e+001
1.001810e+001
1.000908e+001
1.000000e+001
1.000000e+001
1.001000e+001
1.001993e+001
1.002974e+001
1.003937e+001
1.004876e+001
1.005784e+001
1.006657e+001
1.007489e+001
1.008275e+001
1.009009e+001
1.009689e+001
1.010308e+001
1.010864e+001
1.011353e+001
1.011771e+001
1.012118e+001
1.012389e+001
1.012584e+001
1.012702e+001
1.012741e+001
1.012702e+001
1.012584e+001
1.012389e+001
1.012118e+001
1.011771e+001
1.011353e+001
1.010864e+001
1.010308e+001
1.009689e+001
1.009009e+001
1.008275e+001
1.007489e+001
1.006657e+001
1.005784e+001
1.004876e+001
1.003937e+001
1.002974e+001
1.001993e+001
1.001000e+001
1.000000e+001
1.000000e+001
1.001098e+001
1.002189e+001
1.003266e+001
1.004324e+001
1.005354e+001
1.006352e+001
1.007311e+001
1.008224e+001
1.009087e+001
1.009894e+001
1.010639e+001
1.011320e+001
1.011930e+001
1.012467e+001
1.012927e+001
1.013307e+001
1.013605e+001
1.013819e+001
1.013949e+001
1.013992e+001
1.013949e+001
1.013819e+001
1.013605e+001
1.013307e+001
1.012927e+001
1.012467e+001
1.011930e+001
1.011320e+001
1.010639e+001
1.009894e+001
1.009087e+001
1.008224e+001
1.007311e+001
1.006352e+001
1.005354e+001
1.004324e+001
1.003266e+001
1.002189e+001
1.001098e+001
1.000000e+001
1.000000e+001
1.001203e+001
1.002398e+001
1.003578e+001
1.004737e+001
1.005866e+001
1.006959e+001
1.008009e+001
1.009010e+001
1.009955e+001
1.010839e+001
1.011656e+001
1.012401e+001
1.013070e+001
1.013658e+001
1.014162e+001
1.014578e+001
1.014905e+001
1.015140e+001
1.015281e+001
1.015328e+001
1.015281e+001
1.015140e+001
1.014905e+001
1.014578e+001
1.014162e+001
1.013658e+001
1.013070e+001
1.012401e+001
1.011656e+001
1.010839e+001
1.009955e+001
1.009010e+001
1.008009e+001
1.006959e+001
1.005866e+001
1.004737e+001
1.003578e+001
1.002398e+001
1.001203e+001
1.000000e+001
1.000000e+001
1.001315e+001
1.002622e+001
1.003912e+001
1.005179e+001
1.006414e+001
1.007609e+001
1.008757e+001
1.009851e+001
1.010885e+001
1.011851e+001
1.012744e+001
1.013559e+001
1.014290e+001
1.014933e+001
1.015484e+001
1.015939e+001
1.016297e+001
1.016553e+001
1.016708e+001
1.016760e+001
1.016708e+001
1.016553e+001
1.016297e+001
1.015939e+001
1.015484e+001
1.014933e+001
1.014290e+001
1.013559e+001
1.012744e+001
1.011851e+001
1.010885e+001
1.009851e+001
1.008757e+001
1.007609e+001
1.006414e+001
1.005179e+001
1.003912e+001
1.002622e+001
1.001315e+001
1.000000e+001
1.000000e+001
1.001435e+001
1.002862e+001
1.004271e+001
1.005653e+001
1.007001e+001
1.008305e+001
1.009559e+001
1.010753e+001
1.011881e+001
1.012936e+001
1.013911e+001
1.014800e+001
1.015598e+001
1.016300e+001
1.016902e+001
1.017399e+001
1.017789e+001
1.018069e+001
1.018238e+001
1.018294e+001
1.018238e+001
1.018069e+001
1.017789e+001
1.017399e+001
1.016902e+001
1.016300e+001
1.015598e+001
1.014800e+001
1.013911e+001
1.012936e+001
1.011881e+001
1.010753e+001
1.009559e+001
1.008305e+001
1.007001e+001
1.005653e+001
1.004271e+001
1.002862e+001
1.001435e+001
1.000000e+001
1.000000e+001
1.001565e+001
1.003120e+001
1.004655e+001
1.006162e+001
1.007631e+001
1.009053e+001
1.010419e+001
1.011721e+001
1.012951e+001
1.014101e+001
1.015164e+001
1.016133e+001
1.017003e+001
1.017768e+001
1.018424e+001
1.018966e+001
1.019391e+001
1.019696e+001
1.019880e+001
1.019942e+001
1.019880e+001
1.019696e+001
1.019391e+001
1.018966e+001
1.018424e+001
1.017768e+001
1.017003e+001
1.016133e+001
1.015164e+001
1.014101e+001
1.012951e+001
1.011721e+001
1.010419e+001
1.009053e+001
1.007631e+001
1.006162e+001
1.004655e+001
1.003120e+001
1.001565e+001
1.000000e+001
1.000000e+001
1.001703e+001
1.003396e+001
1.005069e+001
1.006709e+001
1.008309e+001
1.009857e+001
1.011344e+001
1.012762e+001
1.014101e+001
1.015353e+001
1.016510e+001
1.017565e+001
1.018512e+001
1.019345e+001
1.020059e+001
1.020649e+001
1.021112e+001
1.021445e+001
1.021645e+001
1.021712e+001
1.021645e+001
1.021445e+001
1.021112e+001
1.020649e+001
1.020059e+001
1.019345e+001
1.018512e+001
1.017565e+001
1.016510e+001
1.015353e+001
1.014101e+001
1.012762e+001
1.011344e+001
1.009857e+001
1.008309e+001
1.006709e+001
1.005069e+001
1.003396e+001
1.001703e+001
1.000000e+001
1.000000e+001
1.001853e+001
1.003694e+001
1.005513e+001
1.007298e+001
1.009037e+001
1.010721e+001
1.012339e+001
1.013881e+001
1.015337e+001
1.016699e+001
1.017958e+001
1.019106e+001
1.020136e+001
1.021042e+001
1.021818e+001
1.022460e+001
1.022963e+001
1.023325e+001
1.023543e+001
1.023616e+001
1.023543e+001
1.023325e+001
1.022963e+001
1.022460e+001
1.021818e+001
1.021042e+001
1.020136e+001
1.019106e+001
1.017958e+001
1.016699e+001
1.015337e+001
1.013881e+001
1.012339e+001
1.010721e+001
1.009037e+001
1.007298e+001
1.005513e+001
1.003694e+001
1.001853e+001
1.000000e+001
1.000000e+001
1.002014e+001
1.004015e+001
1.005992e+001
1.007931e+001
1.009822e+001
1.011652e+001
1.013410e+001
1.015086e+001
1.016669e+001
1.018148e+001
1.019516e+001
1.020764e+001
1.021884e+001
1.022868e+001
1.023712e+001
1.024410e+001
1.024957e+001
1.025350e+001
1.025587e+001
1.025666e+001
1.025587e+001
1.025350e+001
1.024957e+001
1.024410e+001
1.023712e+001
1.022868e+001
1.021884e+001
1.020764e+001
1.019516e+001
1.018148e+001
1.016669e+001
1.015086e+001
1.013410e+001
1.011652e+001
1.009822e+001
1.007931e+001
1.005992e+001
1.004015e+001
1.002014e+001
1.000000e+001
1.000000e+001
1.002187e+001
1.004360e+001
1.006507e+001
1.008613e+001
1.010667e+001
1.012654e+001
1.014564e+001
1.016384e+001
1.018102e+001
1.019710e+001
1.021195e+001
1.022550e+001
1.023766e+001
1.024836e+001
1.025752e+001
1.026509e+001
1.027104e+001
1.027530e+001
1.027788e+001
1.027874e+001
1.027788e+001
1.027530e+001
1.027104e+001
1.026509e+001
1.025752e+001
1.024836e+001
1.023766e+001
1.022550e+001
1.021195e+001
1.019710e+001
1.018103e+001
1.016384e+001
1.014564e+001
1.012654e+001
1.010667e+001
1.008613e+001
1.006507e+001
1.004360e+001
1.002187e+001
1.000000e+001
1.000000e+001
1.002374e+001
1.004733e+001
1.007063e+001
1.009349e+001
1.011578e+001
1.013735e+001
1.015807e+001
1.017783e+001
1.019648e+001
1.021392e+001
1.023005e+001
1.024476e+001
1.025795e+001
1.026956e+001
1.027951e+001
1.028773e+001
1.029418e+001
1.029881e+001
1.030160e+001
1.030253e+001
1.030160e+001
1.029881e+001
1.029418e+001
1.028773e+001
1.027951e+001
1.026956e+001
1.025795e+001
1.024476e+001
1.023005e+001
1.021392e+001
1.019648e+001
1.017783e+001
1.015807e+001
1.013735e+001
1.011578e+001
1.009349e+001
1.007063e+001
1.004733e+001
1.002374e+001
1.000000e+001
1.000000e+001
1.002575e+001
1.005134e+001
1.007662e+001
1.010142e+001
1.012560e+001
1.014900e+001
1.017148e+001
1.019291e+001
1.021315e+001
1.023207e+001
1.024956e+001
1.026552e+001
1.027984e+001
1.029243e+001
1.030322e+001
1.031214e+001
1.031913e+001
1.032416e+001
1.032719e+001
1.032820e+001
1.032719e+001
1.032416e+001
1.031913e+001
1.031214e+001
1.030322e+001
1.029243e+001
1.027984e+001
1.026552e+001
1.024956e+001
1.023207e+001
1.021315e+001
1.019291e+001
1.017148e+001
1.014900e+001
1.012560e+001
1.010142e+001
1.007662e+001
1.005134e+001
1.002575e+001
1.000000e+001
1.000000e+001
1.002792e+001
1.005567e+001
1.008308e+001
1.010997e+001
1.013619e+001
1.016157e+001
1.018595e+001
1.020918e+001
1.023113e+001
1.025165e+001
1.027062e+001
1.028792e+001
1.030344e+001
1.031710e+001
1.032880e+001
1.033847e+001
1.034605e+001
1.035150e+001
1.035479e+001
1.035589e+001
1.035479e+001
1.035150e+001
1.034605e+001
1.033847e+001
1.032880e+001
1.031710e+001
1.030344e+001
1.028792e+001
1.027062e+001
1.025165e+001
1.023113e+001
1.020918e+001
1.018595e+001
1.016157e+001
1.013619e+001
1.010997e+001
1.008308e+001
1.005567e+001
1.002792e+001
1.000000e+001
1.000000e+001
1.003027e+001
1.006035e+001
1.009006e+001
1.011921e+001
1.014763e+001
1.017513e+001
1.020156e+001
1.022675e+001
1.025054e+001
1.027278e+001
1.029334e+001
1.031209e+001
1.032892e+001
1.034372e+001
1.035640e+001
1.036689e+001
1.037511e+001
1.038102e+001
1.038458e+001
1.038577e+001
1.038458e+001
1.038102e+001
1.037511e+001
1.036689e+001
1.035640e+001
1.034372e+001
1.032892e+001
1.031209e+001
1.029334e+001
1.027278e+001
1.025054e+001
1.022675e+001
1.020156e+001
1.017513e+001
1.014763e+001
1.011921e+001
1.009006e+001
1.006035e+001
1.003027e+001
1.000000e+001
1.000000e+001
1.003280e+001
1.006539e+001
1.009759e+001
1.012918e+001
1.015997e+001
1.018978e+001
1.021842e+001
1.024571e+001
1.027149e+001
1.029559e+001
1.031787e+001
1.033819e+001
1.035643e+001
1.037246e+001
1.038621e+001
1.039757e+001
1.040648e+001
1.041288e+001
1.041674e+001
1.041803e+001
1.041674e+001
1.041288e+001
1.040648e+001
1.039757e+001
1.038621e+001
1.037246e+001
1.035643e+001
1.033819e+001
1.031787e+001
1.029559e+001
1.027149e+001
1.024571e+001
1.021842e+001
1.018978e+001
1.015997e+001
1.012918e+001
1.009759e+001
1.006539e+001
1.003280e+001
1.000000e+001
1.000000e+001
1.003553e+001
1.007084e+001
1.010572e+001
1.013994e+001
1.017330e+001
1.020560e+001
1.023662e+001
1.026619e+001
1.029411e+001
1.032022e+001
1.034436e+001
1.036637e+001
1.038613e+001
1.040350e+001
1.041839e+001
1.043070e+001
1.044035e+001
1.044729e+001
1.045147e+001
1.045286e+001
1.045147e+001
1.044729e+001
1.044035e+001
1.043070e+001
1.041839e+001
1.040350e+001
1.038613e+001
1.036637e+001
1.034436e+001
1.032022e+001
1.029411e+001
1.026619e+001
1.023662e+001
1.020560e+001
1.017330e+001
1.013994e+001
1.010572e+001
1.007084e+001
1.003553e+001
1.000000e+001
1.000000e+001
1.003848e+001
1.007673e+001
1.011450e+001
1.015157e+001
1.018770e+001
1.022268e+001
1.025628e+001
1.028830e+001
1.031855e+001
1.034683e+001
1.037297e+001
1.039682e+001
1.041821e+001
1.043703e+001
1.045316e+001
1.046649e+001
1.047694e+001
1.048445e+001
1.048898e+001
1.049049e+001
1.048898e+001
1.048445e+001
1.047694e+001
1.046649e+001
1.045316e+001
1.043703e+001
1.041821e+001
1.039682e+001
1.037297e+001
1.034683e+001
1.031855e+001
1.028830e+001
1.025628e+001
1.022268e+001
1.018770e+001
1.015157e+001
1.011450e+001
1.007673e+001
1.003848e+001
1.000000e+001
1.000000e+001
1.004167e+001
1.008309e+001
1.012399e+001
1.016413e+001
1.020326e+001
1.024113e+001
1.027752e+001
1.031220e+001
1.034495e+001
1.037558e+001
1.040389e+001
1.042970e+001
1.045288e+001
1.047325e+001
1.049071e+001
1.050515e+001
1.051647e+001
1.052461e+001
1.052951e+001
1.053114e+001
1.052951e+001
1.052461e+001
1.051647e+001
1.050515e+001
1.049071e+001
1.047325e+001
1.045288e+001
1.042970e+001
1.040389e+001
1.037558e+001
1.034495e+001
1.031220e+001
1.027752e+001
1.024113e+001
1.020326e+001
1.016413e+001
1.012399e+001
1.008309e+001
1.004167e+001
1.000000e+001
1.000000e+001
1.004512e+001
1.008996e+001
1.013425e+001
1.017771e+001
1.022007e+001
1.026108e+001
1.030047e+001
1.033802e+001
1.037348e+001
1.040664e+001
1.043729e+001
1.046524e+001
1.049033e+001
1.051239e+001
1.053130e+001
1.054693e+001
1.055918e+001
1.056799e+001
1.057330e+001
1.057507e+001
1.057330e+001
1.056799e+001
1.055918e+001
1.054693e+001
1.053130e+001
1.051239e+001
1.049033e+001
1.046524e+001
1.043729e+001
1.040664e+001
1.037348e+001
1.033802e+001
1.030047e+001
1.026108e+001
1.022007e+001
1.017771e+001
1.013425e+001
1.008996e+001
1.004512e+001
1.000000e+001
1.000000e+001
1.004884e+001
1.009739e+001
1.014533e+001
1.019238e+001
1.023824e+001
1.028263e+001
1.032528e+001
1.036592e+001
1.040431e+001
1.044021e+001
1.047339e+001
1.050365e+001
1.053081e+001
1.055469e+001
1.057516e+001
1.059208e+001
1.060534e+001
1.061488e+001
1.062063e+001
1.062255e+001
1.062063e+001
1.061488e+001
1.060534e+001
1.059208e+001
1.057516e+001
1.055469e+001
1.053081e+001
1.050365e+001
1.047339e+001
1.044021e+001
1.040431e+001
1.036592e+001
1.032528e+001
1.028263e+001
1.023824e+001
1.019238e+001
1.014533e+001
1.009739e+001
1.004884e+001
1.000000e+001
1.000000e+001
1.005287e+001
1.010541e+001
1.015731e+001
1.020823e+001
1.025787e+001
1.030592e+001
1.035209e+001
1.039608e+001
1.043763e+001
1.047649e+001
1.051240e+001
1.054516e+001
1.057456e+001
1.060041e+001
1.062256e+001
1.064088e+001
1.065524e+001
1.066556e+001
1.067178e+001
1.067386e+001
1.067178e+001
1.066556e+001
1.065524e+001
1.064088e+001
1.062256e+001
1.060041e+001
1.057456e+001
1.054516e+001
1.051240e+001
1.047649e+001
1.043763e+001
1.039608e+001
1.035209e+001
1.030592e+001
1.025787e+001
1.020823e+001
1.015731e+001
1.010541e+001
1.005287e+001
1.000000e+001
1.000000e+001
1.005722e+001
1.011409e+001
1.017026e+001
1.022537e+001
1.027910e+001
1.033111e+001
1.038107e+001
1.042868e+001
1.047366e+001
1.051571e+001
1.055458e+001
1.059003e+001
1.062185e+001
1.064983e+001
1.067381e+001
1.069363e+001
1.070917e+001
1.072034e+001
1.072707e+001
1.072932e+001
1.072707e+001
1.072034e+001
1.070917e+001
1.069363e+001
1.067381e+001
1.064983e+001
1.062185e+001
1.059003e+001
1.055458e+001
1.051571e+001
1.047366e+001
1.042868e+001
1.038107e+001
1.033111e+001
1.027910e+001
1.022537e+001
1.017026e+001
1.011409e+001
1.005722e+001
1.000000e+001
1.000000e+001
1.006193e+001
1.012347e+001
1.018425e+001
1.024390e+001
1.030205e+001
1.035833e+001
1.041240e+001
1.046393e+001
1.051260e+001
1.055811e+001
1.060018e+001
1.063854e+001
1.067298e+001
1.070326e+001
1.072920e+001
1.075065e+001
1.076748e+001
1.077957e+001
1.078685e+001
1.078928e+001
1.078685e+001
1.077957e+001
1.076748e+001
1.075065e+001
1.072920e+001
1.070326e+001
1.067298e+001
1.063854e+001
1.060018e+001
1.055811e+001
1.051260e+001
1.046393e+001
1.041240e+001
1.035833e+001
1.030205e+001
1.024390e+001
1.018425e+001
1.012347e+001
1.006193e+001
1.000000e+001
1.000000e+001
1.006701e+001
1.013361e+001
1.019939e+001
1.026394e+001
1.032685e+001
1.038776e+001
1.044627e+001
1.050204e+001
1.055470e+001
1.060395e+001
1.064947e+001
1.069099e+001
1.072825e+001
1.076102e+001
1.078910e+001
1.081231e+001
1.083051e+001
1.084360e+001
1.085148e+001
1.085411e+001
1.085148e+001
1.084360e+001
1.083051e+001
1.081231e+001
1.078910e+001
1.076102e+001
1.072825e+001
1.069099e+001
1.064947e+001
1.060395e+001
1.055470e+001
1.050204e+001
1.044627e+001
1.038776e+001
1.032685e+001
1.026394e+001
1.019939e+001
1.013361e+001
1.006701e+001
1.000000e+001
1.000000e+001
1.007251e+001
1.014458e+001
1.021575e+001
1.028560e+001
1.035368e+001
1.041958e+001
1.048290e+001
1.054324e+001
1.060022e+001
1.065351e+001
1.070277e+001
1.074770e+001
1.078802e+001
1.082347e+001
1.085386e+001
1.087897e+001
1.089867e+001
1.091283e+001
1.092136e+001
1.092421e+001
1.092136e+001
1.091283e+001
1.089867e+001
1.087897e+001
1.085386e+001
1.082347e+001
1.078802e+001
1.074770e+001
1.070277e+001
1.065351e+001
1.060022e+001
1.054324e+001
1.048290e+001
1.041958e+001
1.035368e+001
1.028560e+001
1.021575e+001
1.014458e+001
1.007251e+001
1.000000e+001
1.000000e+001
1.007846e+001
1.015643e+001
1.023345e+001
1.030902e+001
1.038268e+001
1.045399e+001
1.052250e+001
1.058779e+001
1.064945e+001
1.070711e+001
1.076041e+001
1.080902e+001
1.085264e+001
1.089101e+001
1.092388e+001
1.095106e+001
1.097237e+001
1.098769e+001
1.099692e+001
1.100000e+001
1.099692e+001
1.098769e+001
1.097237e+001
1.095106e+001
1.092388e+001
1.089101e+001
1.085264e+001
1.080902e+001
1.076041e+001
1.070711e+001
1.064945e+001
1.058779e+001
1.052250e+001
1.045399e+001
1.038268e+001
1.030902e+001
1.023345e+001
1.015643e+001
1.007846e+001
1.000000e+001
