# vtk DataFile Version 3.0
steady_diffusion_2D
ASCII
DATASET STRUCTURED_POINTS
DIMENSIONS 21 21 1
ORIGIN 0.0 0.0 0.0
SPACING 0.05 0.05 1.0
POINT_DATA 441
SCALARS Temperature double 1
LOOKUP_TABLE default
1.500000e+001
1.500000e+001
1.500000e+001
1.500000e+001
1.500000e+001
1.500000e+001
1.500000e+001
1.500000e+001
1.500000e+001
1.500000e+001
1.500000e+001
1.500000e+001
1.500000e+001
1.500000e+001
1.500000e+001
1.500000e+001
1.500000e+001
1.500000e+001
1.500000e+001
1.500000e+001
1.500000e+001
1.500000e+001
1.125000e+001
9.843750e+000
9.316406e+000
9.118652e+000
9.044495e+000
9.016685e+000
9.006257e+000
9.002346e+000
9.000880e+000
9.000330e+000
9.000124e+000
9.000046e+000
9.000017e+000
9.000007e+000
9.000002e+000
9.000001e+000
9.000000e+000
9.000000e+000
9.000000e+000
1.500000e+001
1.500000e+001
9.843750e+000
7.382812e+000
6.262207e+000
5.767822e+000
5.554619e+000
5.464239e+000
5.426436e+000
5.410793e+000
5.404377e+000
5.401765e+000
5.400708e+000
5.400283e+000
5.400113e+000
5.400045e+000
5.400018e+000
5.400007e+000
5.400003e+000
5.400001e+000
5.400000e+000
1.500000e+001
1.500000e+001
9.316406e+000
6.262207e+000
4.696655e+000
3.924179e+000
3.554549e+000
3.382046e+000
3.303181e+000
3.267740e+000
3.252044e+000
3.245179e+000
3.242208e+000
3.240934e+000
3.240392e+000
3.240164e+000
3.240068e+000
3.240028e+000
3.240012e+000
3.240005e+000
3.240002e+000
1.500000e+001
1.500000e+001
9.118652e+000
5.767822e+000
3.924179e+000
2.943134e+000
2.436631e+000
2.182004e+000
2.056944e+000
1.996757e+000
1.968300e+000
1.955055e+000
1.948973e+000
1.946215e+000
1.944978e+000
1.944428e+000
1.944186e+000
1.944080e+000
1.944034e+000
1.944015e+000
1.944006e+000
1.500000e+001
1.500000e+001
9.044495e+000
5.554619e+000
3.554549e+000
2.436631e+000
1.827473e+000
1.503554e+000
1.335187e+000
1.249479e+000
1.206667e+000
1.185646e+000
1.175482e+000
1.170637e+000
1.168355e+000
1.167294e+000
1.166805e+000
1.166582e+000
1.166481e+000
1.166436e+000
1.166416e+000
1.500000e+001
1.500000e+001
9.016685e+000
5.464239e+000
3.382046e+000
2.182004e+000
1.503554e+000
1.127666e+000
9.235696e-001
8.148932e-001
7.580851e-001
7.288990e-001
7.141429e-001
7.067923e-001
7.031804e-001
7.014278e-001
7.005873e-001
7.001885e-001
7.000011e-001
6.999139e-001
6.998736e-001
1.500000e+001
1.500000e+001
9.006257e+000
5.426436e+000
3.303181e+000
2.056944e+000
1.335187e+000
9.235696e-001
6.926772e-001
5.653389e-001
4.962840e-001
4.594436e-001
4.400950e-001
4.300827e-001
4.249737e-001
4.224006e-001
4.211205e-001
4.204909e-001
4.201845e-001
4.200369e-001
4.199665e-001
1.500000e+001
1.500000e+001
9.002346e+000
5.410793e+000
3.267740e+000
1.996757e+000
1.249479e+000
8.148932e-001
5.653389e-001
4.240042e-001
3.451081e-001
3.017069e-001
2.781757e-001
2.655969e-001
2.589640e-001
2.555117e-001
2.537371e-001
2.528355e-001
2.523825e-001
2.521573e-001
2.520464e-001
1.500000e+001
1.500000e+001
9.000880e+000
5.404377e+000
3.252044e+000
1.968300e+000
1.206667e+000
7.580851e-001
4.962840e-001
3.451081e-001
2.588310e-001
2.102017e-001
1.831415e-001
1.682769e-001
1.602153e-001
1.558976e-001
1.536130e-001
1.524182e-001
1.518002e-001
1.514841e-001
1.513239e-001
1.500000e+001
1.500000e+001
9.000330e+000
5.401765e+000
3.245179e+000
1.955055e+000
1.185646e+000
7.288990e-001
4.594436e-001
3.017069e-001
2.102017e-001
1.576513e-001
1.277973e-001
1.110278e-001
1.017162e-001
9.660518e-002
9.383182e-002
9.234375e-002
9.155400e-002
9.113928e-002
9.092370e-002
1.500000e+001
1.500000e+001
9.000124e+000
5.400708e+000
3.242208e+000
1.948973e+000
1.175482e+000
7.141429e-001
4.400950e-001
2.781757e-001
1.831415e-001
1.277973e-001
9.584798e-002
7.757843e-002
6.723548e-002
6.144025e-002
5.822703e-002
5.646404e-002
5.550677e-002
5.499227e-002
5.471849e-002
1.500000e+001
1.500000e+001
9.000046e+000
5.400283e+000
3.240934e+000
1.946215e+000
1.170637e+000
7.067923e-001
4.300827e-001
2.655969e-001
1.682769e-001
1.110278e-001
7.757843e-002
5.818382e-002
4.703224e-002
4.067718e-002
3.708908e-002
3.508242e-002
3.397094e-002
3.336120e-002
3.302988e-002
1.500000e+001
1.500000e+001
9.000017e+000
5.400113e+000
3.240392e+000
1.944978e+000
1.168355e+000
7.031804e-001
4.249737e-001
2.589640e-001
1.602153e-001
1.017162e-001
6.723548e-002
4.703224e-002
3.527418e-002
2.848176e-002
2.458907e-002
2.237681e-002
2.113041e-002
2.043435e-002
2.004909e-002
1.500000e+001
1.500000e+001
9.000007e+000
5.400045e+000
3.240164e+000
1.944428e+000
1.167294e+000
7.014278e-001
4.224006e-001
2.555117e-001
1.558976e-001
9.660518e-002
6.144025e-002
4.067718e-002
2.848176e-002
2.136132e-002
1.723139e-002
1.485308e-002
1.349381e-002
1.272306e-002
1.228956e-002
1.500000e+001
1.500000e+001
9.000002e+000
5.400018e+000
3.240068e+000
1.944186e+000
1.166805e+000
7.005873e-001
4.211205e-001
2.537371e-001
1.536130e-001
9.383182e-002
5.822703e-002
3.708908e-002
2.458907e-002
1.723139e-002
1.292355e-002
1.041623e-002
8.966265e-003
8.133497e-003
7.658645e-003
1.500000e+001
1.500000e+001
9.000001e+000
5.400007e+000
3.240028e+000
1.944080e+000
1.166582e+000
7.001885e-001
4.204909e-001
2.528355e-001
1.524182e-001
9.234375e-002
5.646404e-002
3.508242e-002
2.237681e-002
1.485308e-002
1.041623e-002
7.812175e-003
6.291915e-003
5.409529e-003
4.900565e-003
1.500000e+001
1.500000e+001
9.000000e+000
5.400003e+000
3.240012e+000
1.944034e+000
1.166481e+000
7.000011e-001
4.201845e-001
2.523825e-001
1.518002e-001
9.155400e-002
5.550677e-002
3.397094e-002
2.113041e-002
1.349381e-002
8.966265e-003
6.291915e-003
4.718936e-003
3.798175e-003
3.262027e-003
1.500000e+001
1.500000e+001
9.000000e+000
5.400001e+000
3.240005e+000
1.944015e+000
1.166436e+000
6.999139e-001
4.200369e-001
2.521573e-001
1.514841e-001
9.113928e-002
5.499227e-002
3.336120e-002
2.043435e-002
1.272306e-002
8.133497e-003
5.409529e-003
3.798175e-003
2.848631e-003
2.291497e-003
1.500000e+001
1.500000e+001
9.000000e+000
5.400000e+000
3.240002e+000
1.944006e+000
1.166416e+000
6.998736e-001
4.199665e-001
2.520464e-001
1.513239e-001
9.092370e-002
5.471849e-002
3.302988e-002
2.004909e-002
1.228956e-002
7.658645e-003
4.900565e-003
3.262027e-003
2.291497e-003
1.718623e-003
1.500000e+001
1.500000e+001
1.523465e+001
1.546353e+001
1.568099e+001
1.588168e+001
1.606066e+001
1.621353e+001
1.633651e+001
1.642658e+001
1.648153e+001
1.650000e+001
1.648153e+001
1.642658e+001
1.633651e+001
1.621353e+001
1.606066e+001
1.588168e+001
1.568099e+001
1.546353e+001
1.523465e+001
1.500000e+001
