# vtk DataFile Version 3.0
steady_diffusion_2D
ASCII
DATASET STRUCTURED_POINTS
DIMENSIONS 81 81 1
ORIGIN 0.0 0.0 0.0
SPACING 0.0125 0.0125 1.0
POINT_DATA 6561
SCALARS Temperature double 1
LOOKUP_TABLE default
1.000000e+001
1.000000e+001
1.000000e+001
1.000000e+001
1.000000e+001
1.000000e+001
1.000000e+001
1.000000e+001
1.000000e+001
1.000000e+001
1.000000e+001
1.000000e+001
1.000000e+001
1.000000e+001
1.000000e+001
1.000000e+001
1.000000e+001
1.000000e+001
1.000000e+001
1.000000e+001
1.000000e+001
1.000000e+001
1.000000e+001
1.000000e+001
1.000000e+001
1.000000e+001
1.000000e+001
1.000000e+001
1.000000e+001
1.000000e+001
1.000000e+001
1.000000e+001
1.000000e+001
1.000000e+001
1.000000e+001
1.000000e+001
1.000000e+001
1.000000e+001
1.000000e+001
1.000000e+001
1.000000e+001
1.000000e+001
1.000000e+001
1.000000e+001
1.000000e+001
1.000000e+001
1.000000e+001
1.000000e+001
1.000000e+001
1.000000e+001
1.000000e+001
1.000000e+001
1.000000e+001
1.000000e+001
1.000000e+001
1.000000e+001
1.000000e+001
1.000000e+001
1.000000e+001
1.000000e+001
1.000000e+001
1.000000e+001
1.000000e+001
1.000000e+001
1.000000e+001
1.000000e+001
1.000000e+001
1.000000e+001
1.000000e+001
1.000000e+001
1.000000e+001
1.000000e+001
1.000000e+001
1.000000e+001
1.000000e+001
1.000000e+001
1.000000e+001
1.000000e+001
1.000000e+001
1.000000e+001
1.000000e+001
1.000000e+001
1.000013e+001
1.000027e+001
1.000040e+001
1.000053e+001
1.000066e+001
1.000079e+001
1.000092e+001
1.000105e+001
1.000118e+001
1.000130e+001
1.000142e+001
1.000154e+001
1.000166e+001
1.000178e+001
1.000189e+001
1.000200e+001
1.000211e+001
1.000221e+001
1.000231e+001
1.000241e+001
1.000250e+001
1.000259e+001
1.000267e+001
1.000275e+001
1.000283e+001
1.000290e+001
1.000297e+001
1.000303e+001
1.000309e+001
1.000314e+001
1.000319e+001
1.000324e+001
1.000327e+001
1.000331e+001
1.000334e+001
1.000336e+001
1.000338e+001
1.000339e+001
1.000340e+001
1.000340e+001
1.000340e+001
1.000339e+001
1.000338e+001
1.000336e+001
1.000334e+001
1.000331e+001
1.000327e+001
1.000324e+001
1.000319e+001
1.000314e+001
1.000309e+001
1.000303e+001
1.000297e+001
1.000290e+001
1.000283e+001
1.000275e+001
1.000267e+001
1.000259e+001
1.000250e+001
1.000241e+001
1.000231e+001
1.000221e+001
1.000211e+001
1.000200e+001
1.000189e+001
1.000178e+001
1.000166e+001
1.000154e+001
1.000142e+001
1.000130e+001
1.000118e+001
1.000105e+001
1.000092e+001
1.000079e+001
1.000066e+001
1.000053e+001
1.000040e+001
1.000027e+001
1.000013e+001
1.000000e+001
1.000000e+001
1.000027e+001
1.000053e+001
1.000080e+001
1.000107e+001
1.000133e+001
1.000159e+001
1.000185e+001
1.000210e+001
1.000236e+001
1.000261e+001
1.000285e+001
1.000309e+001
1.000333e+001
1.000356e+001
1.000378e+001
1.000400e+001
1.000422e+001
1.000442e+001
1.000462e+001
1.000481e+001
1.000500e+001
1.000518e+001
1.000535e+001
1.000551e+001
1.000566e+001
1.000581e+001
1.000594e+001
1.000607e+001
1.000618e+001
1.000629e+001
1.000639e+001
1.000648e+001
1.000655e+001
1.000662e+001
1.000668e+001
1.000673e+001
1.000676e+001
1.000679e+001
1.000680e+001
1.000681e+001
1.000680e+001
1.000679e+001
1.000676e+001
1.000673e+001
1.000668e+001
1.000662e+001
1.000655e+001
1.000648e+001
1.000639e+001
1.000629e+001
1.000618e+001
1.000607e+001
1.000594e+001
1.000581e+001
1.000566e+001
1.000551e+001
1.000535e+001
1.000518e+001
1.000500e+001
1.000481e+001
1.000462e+001
1.000442e+001
1.000422e+001
1.000400e+001
1.000378e+001
1.000356e+001
1.000333e+001
1.000309e+001
1.000285e+001
1.000261e+001
1.000236e+001
1.000210e+001
1.000185e+001
1.000159e+001
1.000133e+001
1.000107e+001
1.000080e+001
1.000053e+001
1.000027e+001
1.000000e+001
1.000000e+001
1.000040e+001
1.000080e+001
1.000120e+001
1.000160e+001
1.000200e+001
1.000239e+001
1.000278e+001
1.000316e+001
1.000354e+001
1.000391e+001
1.000428e+001
1.000464e+001
1.000500e+001
1.000534e+001
1.000568e+001
1.000601e+001
1.000633e+001
1.000664e+001
1.000694e+001
1.000723e+001
1.000751e+001
1.000778e+001
1.000803e+001
1.000827e+001
1.000850e+001
1.000872e+001
1.000892e+001
1.000911e+001
1.000929e+001
1.000945e+001
1.000960e+001
1.000973e+001
1.000984e+001
1.000994e+001
1.001003e+001
1.001010e+001
1.001016e+001
1.001020e+001
1.001022e+001
1.001023e+001
1.001022e+001
1.001020e+001
1.001016e+001
1.001010e+001
1.001003e+001
1.000994e+001
1.000984e+001
1.000973e+001
1.000960e+001
1.000945e+001
1.000929e+001
1.000911e+001
1.000892e+001
1.000872e+001
1.000850e+001
1.000827e+001
1.000803e+001
1.000778e+001
1.000751e+001
1.000723e+001
1.000694e+001
1.000664e+001
1.000633e+001
1.000601e+001
1.000568e+001
1.000534e+001
1.000500e+001
1.000464e+001
1.000428e+001
1.000391e+001
1.000354e+001
1.000316e+001
1.000278e+001
1.000239e+001
1.000200e+001
1.000160e+001
1.000120e+001
1.000080e+001
1.000040e+001
1.000000e+001
1.000000e+001
1.000054e+001
1.000107e+001
1.000161e+001
1.000214e+001
1.000267e+001
1.000319e+001
1.000371e+001
1.000422e+001
1.000473e+001
1.000523e+001
1.000572e+001
1.000620e+001
1.000667e+001
1.000714e+001
1.000759e+001
1.000803e+001
1.000846e+001
1.000887e+001
1.000927e+001
1.000966e+001
1.001003e+001
1.001039e+001
1.001073e+001
1.001105e+001
1.001136e+001
1.001165e+001
1.001192e+001
1.001217e+001
1.001241e+001
1.001262e+001
1.001282e+001
1.001299e+001
1.001315e+001
1.001328e+001
1.001340e+001
1.001349e+001
1.001357e+001
1.001362e+001
1.001365e+001
1.001366e+001
1.001365e+001
1.001362e+001
1.001357e+001
1.001349e+001
1.001340e+001
1.001328e+001
1.001315e+001
1.001299e+001
1.001282e+001
1.001262e+001
1.001241e+001
1.001217e+001
1.001192e+001
1.001165e+001
1.001136e+001
1.001105e+001
1.001073e+001
1.001039e+001
1.001003e+001
1.000966e+001
1.000927e+001
1.000887e+001
1.000846e+001
1.000803e+001
1.000759e+001
1.000714e+001
1.000667e+001
1.000620e+001
1.000572e+001
1.000523e+001
1.000473e+001
1.000422e+001
1.000371e+001
1.000319e+001
1.000267e+001
1.000214e+001
1.000161e+001
1.000107e+001
1.000054e+001
1.000000e+001
1.000000e+001
1.000067e+001
1.000134e+001
1.000201e+001
1.000268e+001
1.000334e+001
1.000400e+001
1.000465e+001
1.000529e+001
1.000592e+001
1.000655e+001
1.000717e+001
1.000777e+001
1.000836e+001
1.000894e+001
1.000951e+001
1.001006e+001
1.001060e+001
1.001112e+001
1.001162e+001
1.001210e+001
1.001257e+001
1.001301e+001
1.001344e+001
1.001385e+001
1.001423e+001
1.001459e+001
1.001493e+001
1.001525e+001
1.001554e+001
1.001581e+001
1.001606e+001
1.001628e+001
1.001647e+001
1.001664e+001
1.001679e+001
1.001690e+001
1.001700e+001
1.001706e+001
1.001710e+001
1.001712e+001
1.001710e+001
1.001706e+001
1.001700e+001
1.001690e+001
1.001679e+001
1.001664e+001
1.001647e+001
1.001628e+001
1.001606e+001
1.001581e+001
1.001554e+001
1.001525e+001
1.001493e+001
1.001459e+001
1.001423e+001
1.001385e+001
1.001344e+001
1.001301e+001
1.001257e+001
1.001210e+001
1.001162e+001
1.001112e+001
1.001060e+001
1.001006e+001
1.000951e+001
1.000894e+001
1.000836e+001
1.000777e+001
1.000717e+001
1.000655e+001
1.000592e+001
1.000529e+001
1.000465e+001
1.000400e+001
1.000334e+001
1.000268e+001
1.000201e+001
1.000134e+001
1.000067e+001
1.000000e+001
1.000000e+001
1.000081e+001
1.000162e+001
1.000242e+001
1.000322e+001
1.000402e+001
1.000481e+001
1.000559e+001
1.000636e+001
1.000713e+001
1.000788e+001
1.000862e+001
1.000935e+001
1.001006e+001
1.001076e+001
1.001144e+001
1.001211e+001
1.001275e+001
1.001338e+001
1.001398e+001
1.001456e+001
1.001512e+001
1.001566e+001
1.001617e+001
1.001666e+001
1.001713e+001
1.001756e+001
1.001797e+001
1.001835e+001
1.001870e+001
1.001903e+001
1.001932e+001
1.001959e+001
1.001982e+001
1.002003e+001
1.002020e+001
1.002034e+001
1.002045e+001
1.002053e+001
1.002058e+001
1.002060e+001
1.002058e+001
1.002053e+001
1.002045e+001
1.002034e+001
1.002020e+001
1.002003e+001
1.001982e+001
1.001959e+001
1.001932e+001
1.001903e+001
1.001870e+001
1.001835e+001
1.001797e+001
1.001756e+001
1.001713e+001
1.001666e+001
1.001617e+001
1.001566e+001
1.001512e+001
1.001456e+001
1.001398e+001
1.001338e+001
1.001275e+001
1.001211e+001
1.001144e+001
1.001076e+001
1.001006e+001
1.000935e+001
1.000862e+001
1.000788e+001
1.000713e+001
1.000636e+001
1.000559e+001
1.000481e+001
1.000402e+001
1.000322e+001
1.000242e+001
1.000162e+001
1.000081e+001
1.000000e+001
1.000000e+001
1.000095e+001
1.000189e+001
1.000283e+001
1.000377e+001
1.000470e+001
1.000563e+001
1.000654e+001
1.000745e+001
1.000834e+001
1.000923e+001
1.001009e+001
1.001095e+001
1.001178e+001
1.001260e+001
1.001339e+001
1.001417e+001
1.001493e+001
1.001566e+001
1.001637e+001
1.001705e+001
1.001770e+001
1.001833e+001
1.001893e+001
1.001950e+001
1.002005e+001
1.002056e+001
1.002104e+001
1.002148e+001
1.002189e+001
1.002227e+001
1.002262e+001
1.002293e+001
1.002320e+001
1.002344e+001
1.002365e+001
1.002381e+001
1.002394e+001
1.002404e+001
1.002409e+001
1.002411e+001
1.002409e+001
1.002404e+001
1.002394e+001
1.002381e+001
1.002365e+001
1.002344e+001
1.002320e+001
1.002293e+001
1.002262e+001
1.002227e+001
1.002189e+001
1.002148e+001
1.002104e+001
1.002056e+001
1.002005e+001
1.001950e+001
1.001893e+001
1.001833e+001
1.001770e+001
1.001705e+001
1.001637e+001
1.001566e+001
1.001493e+001
1.001417e+001
1.001339e+001
1.001260e+001
1.001178e+001
1.001095e+001
1.001009e+001
1.000923e+001
1.000834e+001
1.000745e+001
1.000654e+001
1.000563e+001
1.000470e+001
1.000377e+001
1.000283e+001
1.000189e+001
1.000095e+001
1.000000e+001
1.000000e+001
1.000109e+001
1.000217e+001
1.000325e+001
1.000433e+001
1.000540e+001
1.000646e+001
1.000751e+001
1.000855e+001
1.000957e+001
1.001058e+001
1.001158e+001
1.001256e+001
1.001351e+001
1.001445e+001
1.001537e+001
1.001626e+001
1.001712e+001
1.001796e+001
1.001878e+001
1.001956e+001
1.002031e+001
1.002103e+001
1.002172e+001
1.002238e+001
1.002300e+001
1.002358e+001
1.002413e+001
1.002464e+001
1.002512e+001
1.002555e+001
1.002595e+001
1.002631e+001
1.002662e+001
1.002690e+001
1.002713e+001
1.002732e+001
1.002747e+001
1.002757e+001
1.002764e+001
1.002766e+001
1.002764e+001
1.002757e+001
1.002747e+001
1.002732e+001
1.002713e+001
1.002690e+001
1.002662e+001
1.002631e+001
1.002595e+001
1.002555e+001
1.002512e+001
1.002464e+001
1.002413e+001
1.002358e+001
1.002300e+001
1.002238e+001
1.002172e+001
1.002103e+001
1.002031e+001
1.001956e+001
1.001878e+001
1.001796e+001
1.001712e+001
1.001626e+001
1.001537e+001
1.001445e+001
1.001351e+001
1.001256e+001
1.001158e+001
1.001058e+001
1.000957e+001
1.000855e+001
1.000751e+001
1.000646e+001
1.000540e+001
1.000433e+001
1.000325e+001
1.000217e+001
1.000109e+001
1.000000e+001
1.000000e+001
1.000123e+001
1.000245e+001
1.000367e+001
1.000489e+001
1.000610e+001
1.000730e+001
1.000848e+001
1.000966e+001
1.001082e+001
1.001196e+001
1.001308e+001
1.001419e+001
1.001527e+001
1.001633e+001
1.001736e+001
1.001837e+001
1.001935e+001
1.002030e+001
1.002121e+001
1.002210e+001
1.002295e+001
1.002376e+001
1.002454e+001
1.002528e+001
1.002599e+001
1.002665e+001
1.002727e+001
1.002785e+001
1.002838e+001
1.002887e+001
1.002932e+001
1.002972e+001
1.003008e+001
1.003039e+001
1.003065e+001
1.003087e+001
1.003104e+001
1.003116e+001
1.003123e+001
1.003125e+001
1.003123e+001
1.003116e+001
1.003104e+001
1.003087e+001
1.003065e+001
1.003039e+001
1.003008e+001
1.002972e+001
1.002932e+001
1.002887e+001
1.002838e+001
1.002785e+001
1.002727e+001
1.002665e+001
1.002599e+001
1.002528e+001
1.002454e+001
1.002376e+001
1.002295e+001
1.002210e+001
1.002121e+001
1.002030e+001
1.001935e+001
1.001837e+001
1.001736e+001
1.001633e+001
1.001527e+001
1.001419e+001
1.001308e+001
1.001196e+001
1.001082e+001
1.000966e+001
1.000848e+001
1.000730e+001
1.000610e+001
1.000489e+001
1.000367e+001
1.000245e+001
1.000123e+001
1.000000e+001
1.000000e+001
1.000137e+001
1.000274e+001
1.000410e+001
1.000546e+001
1.000681e+001
1.000815e+001
1.000947e+001
1.001078e+001
1.001208e+001
1.001335e+001
1.001461e+001
1.001584e+001
1.001705e+001
1.001823e+001
1.001939e+001
1.002051e+001
1.002160e+001
1.002266e+001
1.002369e+001
1.002467e+001
1.002562e+001
1.002653e+001
1.002740e+001
1.002823e+001
1.002901e+001
1.002975e+001
1.003044e+001
1.003109e+001
1.003169e+001
1.003224e+001
1.003274e+001
1.003319e+001
1.003358e+001
1.003393e+001
1.003422e+001
1.003446e+001
1.003465e+001
1.003479e+001
1.003487e+001
1.003489e+001
1.003487e+001
1.003479e+001
1.003465e+001
1.003446e+001
1.003422e+001
1.003393e+001
1.003358e+001
1.003319e+001
1.003274e+001
1.003224e+001
1.003169e+001
1.003109e+001
1.003044e+001
1.002975e+001
1.002901e+001
1.002823e+001
1.002740e+001
1.002653e+001
1.002562e+001
1.002467e+001
1.002369e+001
1.002266e+001
1.002160e+001
1.002051e+001
1.001939e+001
1.001823e+001
1.001705e+001
1.001584e+001
1.001461e+001
1.001335e+001
1.001208e+001
1.001078e+001
1.000947e+001
1.000815e+001
1.000681e+001
1.000546e+001
1.000410e+001
1.000274e+001
1.000137e+001
1.000000e+001
1.000000e+001
1.000151e+001
1.000303e+001
1.000454e+001
1.000604e+001
1.000753e+001
1.000901e+001
1.001047e+001
1.001192e+001
1.001336e+001
1.001477e+001
1.001616e+001
1.001752e+001
1.001885e+001
1.002016e+001
1.002144e+001
1.002268e+001
1.002389e+001
1.002506e+001
1.002619e+001
1.002729e+001
1.002834e+001
1.002934e+001
1.003030e+001
1.003122e+001
1.003208e+001
1.003290e+001
1.003367e+001
1.003438e+001
1.003504e+001
1.003565e+001
1.003620e+001
1.003670e+001
1.003714e+001
1.003752e+001
1.003785e+001
1.003811e+001
1.003832e+001
1.003847e+001
1.003856e+001
1.003859e+001
1.003856e+001
1.003847e+001
1.003832e+001
1.003811e+001
1.003785e+001
1.003752e+001
1.003714e+001
1.003670e+001
1.003620e+001
1.003565e+001
1.003504e+001
1.003438e+001
1.003367e+001
1.003290e+001
1.003208e+001
1.003122e+001
1.003030e+001
1.002934e+001
1.002834e+001
1.002729e+001
1.002619e+001
1.002506e+001
1.002389e+001
1.002268e+001
1.002144e+001
1.002016e+001
1.001885e+001
1.001752e+001
1.001616e+001
1.001477e+001
1.001336e+001
1.001192e+001
1.001047e+001
1.000901e+001
1.000753e+001
1.000604e+001
1.000454e+001
1.000303e+001
1.000151e+001
1.000000e+001
1.000000e+001
1.000166e+001
1.000332e+001
1.000498e+001
1.000662e+001
1.000826e+001
1.000988e+001
1.001149e+001
1.001308e+001
1.001466e+001
1.001620e+001
1.001773e+001
1.001922e+001
1.002069e+001
1.002212e+001
1.002352e+001
1.002489e+001
1.002621e+001
1.002750e+001
1.002874e+001
1.002994e+001
1.003109e+001
1.003220e+001
1.003325e+001
1.003426e+001
1.003521e+001
1.003610e+001
1.003694e+001
1.003773e+001
1.003845e+001
1.003912e+001
1.003972e+001
1.004027e+001
1.004075e+001
1.004117e+001
1.004153e+001
1.004182e+001
1.004205e+001
1.004221e+001
1.004231e+001
1.004234e+001
1.004231e+001
1.004221e+001
1.004205e+001
1.004182e+001
1.004153e+001
1.004117e+001
1.004075e+001
1.004027e+001
1.003972e+001
1.003912e+001
1.003845e+001
1.003773e+001
1.003694e+001
1.003610e+001
1.003521e+001
1.003426e+001
1.003325e+001
1.003220e+001
1.003109e+001
1.002994e+001
1.002874e+001
1.002750e+001
1.002621e+001
1.002489e+001
1.002352e+001
1.002212e+001
1.002069e+001
1.001922e+001
1.001773e+001
1.001620e+001
1.001466e+001
1.001308e+001
1.001149e+001
1.000988e+001
1.000826e+001
1.000662e+001
1.000498e+001
1.000332e+001
1.000166e+001
1.000000e+001
1.000000e+001
1.000181e+001
1.000362e+001
1.000543e+001
1.000722e+001
1.000901e+001
1.001078e+001
1.001253e+001
1.001426e+001
1.001598e+001
1.001767e+001
1.001933e+001
1.002096e+001
1.002256e+001
1.002412e+001
1.002565e+001
1.002713e+001
1.002858e+001
1.002998e+001
1.003133e+001
1.003264e+001
1.003390e+001
1.003510e+001
1.003625e+001
1.003735e+001
1.003838e+001
1.003936e+001
1.004028e+001
1.004113e+001
1.004192e+001
1.004265e+001
1.004331e+001
1.004390e+001
1.004443e+001
1.004489e+001
1.004527e+001
1.004559e+001
1.004584e+001
1.004602e+001
1.004613e+001
1.004616e+001
1.004613e+001
1.004602e+001
1.004584e+001
1.004559e+001
1.004527e+001
1.004489e+001
1.004443e+001
1.004390e+001
1.004331e+001
1.004265e+001
1.004192e+001
1.004113e+001
1.004028e+001
1.003936e+001
1.003838e+001
1.003735e+001
1.003625e+001
1.003510e+001
1.003390e+001
1.003264e+001
1.003133e+001
1.002998e+001
1.002858e+001
1.002713e+001
1.002565e+001
1.002412e+001
1.002256e+001
1.002096e+001
1.001933e+001
1.001767e+001
1.001598e+001
1.001426e+001
1.001253e+001
1.001078e+001
1.000901e+001
1.000722e+001
1.000543e+001
1.000362e+001
1.000181e+001
1.000000e+001
1.000000e+001
1.000197e+001
1.000393e+001
1.000588e+001
1.000783e+001
1.000976e+001
1.001168e+001
1.001359e+001
1.001547e+001
1.001732e+001
1.001915e+001
1.002095e+001
1.002272e+001
1.002446e+001
1.002615e+001
1.002781e+001
1.002942e+001
1.003099e+001
1.003251e+001
1.003398e+001
1.003539e+001
1.003675e+001
1.003806e+001
1.003931e+001
1.004049e+001
1.004162e+001
1.004268e+001
1.004367e+001
1.004460e+001
1.004545e+001
1.004624e+001
1.004696e+001
1.004760e+001
1.004817e+001
1.004867e+001
1.004909e+001
1.004944e+001
1.004970e+001
1.004990e+001
1.005001e+001
1.005005e+001
1.005001e+001
1.004990e+001
1.004970e+001
1.004944e+001
1.004909e+001
1.004867e+001
1.004817e+001
1.004760e+001
1.004696e+001
1.004624e+001
1.004545e+001
1.004460e+001
1.004367e+001
1.004268e+001
1.004162e+001
1.004049e+001
1.003931e+001
1.003806e+001
1.003675e+001
1.003539e+001
1.003398e+001
1.003251e+001
1.003099e+001
1.002942e+001
1.002781e+001
1.002615e+001
1.002446e+001
1.002272e+001
1.002095e+001
1.001915e+001
1.001732e+001
1.001547e+001
1.001359e+001
1.001168e+001
1.000976e+001
1.000783e+001
1.000588e+001
1.000393e+001
1.000197e+001
1.000000e+001
1.000000e+001
1.000212e+001
1.000424e+001
1.000635e+001
1.000845e+001
1.001054e+001
1.001261e+001
1.001466e+001
1.001669e+001
1.001870e+001
1.002067e+001
1.002262e+001
1.002452e+001
1.002640e+001
1.002823e+001
1.003001e+001
1.003175e+001
1.003344e+001
1.003508e+001
1.003667e+001
1.003820e+001
1.003967e+001
1.004108e+001
1.004242e+001
1.004370e+001
1.004492e+001
1.004606e+001
1.004713e+001
1.004813e+001
1.004906e+001
1.004991e+001
1.005068e+001
1.005138e+001
1.005199e+001
1.005253e+001
1.005298e+001
1.005335e+001
1.005365e+001
1.005385e+001
1.005398e+001
1.005402e+001
1.005398e+001
1.005385e+001
1.005365e+001
1.005335e+001
1.005298e+001
1.005253e+001
1.005199e+001
1.005138e+001
1.005068e+001
1.004991e+001
1.004906e+001
1.004813e+001
1.004713e+001
1.004606e+001
1.004492e+001
1.004370e+001
1.004242e+001
1.004108e+001
1.003967e+001
1.003820e+001
1.003667e+001
1.003508e+001
1.003344e+001
1.003175e+001
1.003001e+001
1.002823e+001
1.002640e+001
1.002452e+001
1.002262e+001
1.002067e+001
1.001870e+001
1.001669e+001
1.001466e+001
1.001261e+001
1.001054e+001
1.000845e+001
1.000635e+001
1.000424e+001
1.000212e+001
1.000000e+001
1.000000e+001
1.000228e+001
1.000456e+001
1.000683e+001
1.000908e+001
1.001133e+001
1.001356e+001
1.001576e+001
1.001794e+001
1.002010e+001
1.002222e+001
1.002431e+001
1.002636e+001
1.002837e+001
1.003034e+001
1.003226e+001
1.003413e+001
1.003595e+001
1.003771e+001
1.003942e+001
1.004106e+001
1.004264e+001
1.004416e+001
1.004560e+001
1.004698e+001
1.004828e+001
1.004951e+001
1.005067e+001
1.005174e+001
1.005274e+001
1.005365e+001
1.005448e+001
1.005523e+001
1.005589e+001
1.005647e+001
1.005695e+001
1.005736e+001
1.005767e+001
1.005789e+001
1.005803e+001
1.005807e+001
1.005803e+001
1.005789e+001
1.005767e+001
1.005736e+001
1.005695e+001
1.005647e+001
1.005589e+001
1.005523e+001
1.005448e+001
1.005365e+001
1.005274e+001
1.005174e+001
1.005067e+001
1.004951e+001
1.004828e+001
1.004698e+001
1.004560e+001
1.004416e+001
1.004264e+001
1.004106e+001
1.003942e+001
1.003771e+001
1.003595e+001
1.003413e+001
1.003226e+001
1.003034e+001
1.002837e+001
1.002636e+001
1.002431e+001
1.002222e+001
1.002010e+001
1.001794e+001
1.001576e+001
1.001356e+001
1.001133e+001
1.000908e+001
1.000683e+001
1.000456e+001
1.000228e+001
1.000000e+001
1.000000e+001
1.000244e+001
1.000488e+001
1.000731e+001
1.000973e+001
1.001214e+001
1.001452e+001
1.001689e+001
1.001922e+001
1.002153e+001
1.002381e+001
1.002605e+001
1.002824e+001
1.003040e+001
1.003251e+001
1.003456e+001
1.003657e+001
1.003851e+001
1.004040e+001
1.004223e+001
1.004399e+001
1.004568e+001
1.004731e+001
1.004886e+001
1.005033e+001
1.005173e+001
1.005304e+001
1.005428e+001
1.005543e+001
1.005650e+001
1.005748e+001
1.005837e+001
1.005917e+001
1.005988e+001
1.006049e+001
1.006102e+001
1.006145e+001
1.006178e+001
1.006202e+001
1.006216e+001
1.006221e+001
1.006216e+001
1.006202e+001
1.006178e+001
1.006145e+001
1.006102e+001
1.006049e+001
1.005988e+001
1.005917e+001
1.005837e+001
1.005748e+001
1.005650e+001
1.005543e+001
1.005428e+001
1.005304e+001
1.005173e+001
1.005033e+001
1.004886e+001
1.004731e+001
1.004568e+001
1.004399e+001
1.004223e+001
1.004040e+001
1.003851e+001
1.003657e+001
1.003456e+001
1.003251e+001
1.003040e+001
1.002824e+001
1.002605e+001
1.002381e+001
1.002153e+001
1.001922e+001
1.001689e+001
1.001452e+001
1.001214e+001
1.000973e+001
1.000731e+001
1.000488e+001
1.000244e+001
1.000000e+001
1.000000e+001
1.000261e+001
1.000521e+001
1.000781e+001
1.001039e+001
1.001296e+001
1.001551e+001
1.001804e+001
1.002053e+001
1.002300e+001
1.002543e+001
1.002782e+001
1.003017e+001
1.003247e+001
1.003472e+001
1.003692e+001
1.003906e+001
1.004114e+001
1.004315e+001
1.004510e+001
1.004699e+001
1.004879e+001
1.005053e+001
1.005218e+001
1.005376e+001
1.005525e+001
1.005666e+001
1.005798e+001
1.005921e+001
1.006034e+001
1.006139e+001
1.006234e+001
1.006320e+001
1.006395e+001
1.006461e+001
1.006517e+001
1.006563e+001
1.006599e+001
1.006624e+001
1.006640e+001
1.006645e+001
1.006640e+001
1.006624e+001
1.006599e+001
1.006563e+001
1.006517e+001
1.006461e+001
1.006395e+001
1.006320e+001
1.006234e+001
1.006139e+001
1.006034e+001
1.005921e+001
1.005798e+001
1.005666e+001
1.005525e+001
1.005376e+001
1.005218e+001
1.005053e+001
1.004879e+001
1.004699e+001
1.004510e+001
1.004315e+001
1.004114e+001
1.003906e+001
1.003692e+001
1.003472e+001
1.003247e+001
1.003017e+001
1.002782e+001
1.002543e+001
1.002300e+001
1.002053e+001
1.001804e+001
1.001551e+001
1.001296e+001
1.001039e+001
1.000781e+001
1.000521e+001
1.000261e+001
1.000000e+001
1.000000e+001
1.000278e+001
1.000555e+001
1.000832e+001
1.001107e+001
1.001381e+001
1.001652e+001
1.001921e+001
1.002187e+001
1.002450e+001
1.002709e+001
1.002964e+001
1.003214e+001
1.003459e+001
1.003699e+001
1.003933e+001
1.004161e+001
1.004382e+001
1.004597e+001
1.004805e+001
1.005005e+001
1.005198e+001
1.005383e+001
1.005559e+001
1.005727e+001
1.005886e+001
1.006036e+001
1.006176e+001
1.006307e+001
1.006428e+001
1.006540e+001
1.006641e+001
1.006732e+001
1.006813e+001
1.006883e+001
1.006943e+001
1.006992e+001
1.007030e+001
1.007057e+001
1.007073e+001
1.007079e+001
1.007073e+001
1.007057e+001
1.007030e+001
1.006992e+001
1.006943e+001
1.006883e+001
1.006813e+001
1.006732e+001
1.006641e+001
1.006540e+001
1.006428e+001
1.006307e+001
1.006176e+001
1.006036e+001
1.005886e+001
1.005727e+001
1.005559e+001
1.005383e+001
1.005198e+001
1.005005e+001
1.004805e+001
1.004597e+001
1.004382e+001
1.004161e+001
1.003933e+001
1.003699e+001
1.003459e+001
1.003214e+001
1.002964e+001
1.002709e+001
1.002450e+001
1.002187e+001
1.001921e+001
1.001652e+001
1.001381e+001
1.001107e+001
1.000832e+001
1.000555e+001
1.000278e+001
1.000000e+001
1.000000e+001
1.000295e+001
1.000590e+001
1.000884e+001
1.001177e+001
1.001468e+001
1.001756e+001
1.002042e+001
1.002325e+001
1.002604e+001
1.002879e+001
1.003150e+001
1.003416e+001
1.003676e+001
1.003931e+001
1.004180e+001
1.004422e+001
1.004658e+001
1.004886e+001
1.005107e+001
1.005320e+001
1.005525e+001
1.005721e+001
1.005908e+001
1.006087e+001
1.006256e+001
1.006415e+001
1.006564e+001
1.006703e+001
1.006832e+001
1.006951e+001
1.007058e+001
1.007155e+001
1.007241e+001
1.007316e+001
1.007379e+001
1.007431e+001
1.007471e+001
1.007500e+001
1.007518e+001
1.007524e+001
1.007518e+001
1.007500e+001
1.007471e+001
1.007431e+001
1.007379e+001
1.007316e+001
1.007241e+001
1.007155e+001
1.007058e+001
1.006951e+001
1.006832e+001
1.006704e+001
1.006564e+001
1.006415e+001
1.006256e+001
1.006087e+001
1.005908e+001
1.005721e+001
1.005525e+001
1.005320e+001
1.005107e+001
1.004886e+001
1.004658e+001
1.004422e+001
1.004180e+001
1.003931e+001
1.003676e+001
1.003416e+001
1.003150e+001
1.002879e+001
1.002604e+001
1.002325e+001
1.002042e+001
1.001756e+001
1.001468e+001
1.001177e+001
1.000884e+001
1.000590e+001
1.000295e+001
1.000000e+001
1.000000e+001
1.000313e+001
1.000626e+001
1.000938e+001
1.001248e+001
1.001557e+001
1.001863e+001
1.002166e+001
1.002466e+001
1.002762e+001
1.003054e+001
1.003341e+001
1.003623e+001
1.003899e+001
1.004169e+001
1.004433e+001
1.004690e+001
1.004940e+001
1.005183e+001
1.005417e+001
1.005643e+001
1.005860e+001
1.006068e+001
1.006267e+001
1.006456e+001
1.006635e+001
1.006804e+001
1.006962e+001
1.007110e+001
1.007247e+001
1.007372e+001
1.007487e+001
1.007589e+001
1.007680e+001
1.007759e+001
1.007827e+001
1.007882e+001
1.007925e+001
1.007955e+001
1.007974e+001
1.007980e+001
1.007974e+001
1.007955e+001
1.007925e+001
1.007882e+001
1.007827e+001
1.007759e+001
1.007680e+001
1.007589e+001
1.007487e+001
1.007373e+001
1.007247e+001
1.007110e+001
1.006962e+001
1.006804e+001
1.006635e+001
1.006456e+001
1.006267e+001
1.006068e+001
1.005860e+001
1.005643e+001
1.005417e+001
1.005183e+001
1.004940e+001
1.004690e+001
1.004433e+001
1.004170e+001
1.003899e+001
1.003623e+001
1.003341e+001
1.003054e+001
1.002762e+001
1.002466e+001
1.002166e+001
1.001863e+001
1.001557e+001
1.001248e+001
1.000938e+001
1.000626e+001
1.000313e+001
1.000000e+001
1.000000e+001
1.000332e+001
1.000663e+001
1.000993e+001
1.001322e+001
1.001648e+001
1.001972e+001
1.002293e+001
1.002611e+001
1.002924e+001
1.003233e+001
1.003537e+001
1.003836e+001
1.004128e+001
1.004414e+001
1.004694e+001
1.004966e+001
1.005231e+001
1.005487e+001
1.005735e+001
1.005974e+001
1.006204e+001
1.006424e+001
1.006635e+001
1.006835e+001
1.007025e+001
1.007204e+001
1.007371e+001
1.007528e+001
1.007673e+001
1.007806e+001
1.007926e+001
1.008035e+001
1.008131e+001
1.008215e+001
1.008286e+001
1.008345e+001
1.008390e+001
1.008423e+001
1.008442e+001
1.008449e+001
1.008442e+001
1.008423e+001
1.008390e+001
1.008345e+001
1.008286e+001
1.008215e+001
1.008131e+001
1.008035e+001
1.007926e+001
1.007806e+001
1.007673e+001
1.007528e+001
1.007371e+001
1.007204e+001
1.007025e+001
1.006835e+001
1.006635e+001
1.006424e+001
1.006204e+001
1.005974e+001
1.005735e+001
1.005487e+001
1.005231e+001
1.004966e+001
1.004694e+001
1.004414e+001
1.004128e+001
1.003836e+001
1.003537e+001
1.003233e+001
1.002924e+001
1.002611e+001
1.002293e+001
1.001972e+001
1.001648e+001
1.001322e+001
1.000993e+001
1.000663e+001
1.000332e+001
1.000000e+001
1.000000e+001
1.000351e+001
1.000701e+001
1.001050e+001
1.001397e+001
1.001742e+001
1.002085e+001
1.002424e+001
1.002760e+001
1.003091e+001
1.003418e+001
1.003739e+001
1.004054e+001
1.004364e+001
1.004666e+001
1.004961e+001
1.005249e+001
1.005529e+001
1.005800e+001
1.006062e+001
1.006315e+001
1.006558e+001
1.006791e+001
1.007013e+001
1.007225e+001
1.007425e+001
1.007614e+001
1.007792e+001
1.007957e+001
1.008110e+001
1.008251e+001
1.008378e+001
1.008493e+001
1.008595e+001
1.008684e+001
1.008759e+001
1.008820e+001
1.008869e+001
1.008903e+001
1.008924e+001
1.008930e+001
1.008924e+001
1.008903e+001
1.008869e+001
1.008820e+001
1.008759e+001
1.008684e+001
1.008595e+001
1.008493e+001
1.008378e+001
1.008251e+001
1.008110e+001
1.007957e+001
1.007792e+001
1.007614e+001
1.007425e+001
1.007225e+001
1.007013e+001
1.006791e+001
1.006558e+001
1.006315e+001
1.006062e+001
1.005800e+001
1.005529e+001
1.005249e+001
1.004961e+001
1.004666e+001
1.004364e+001
1.004054e+001
1.003739e+001
1.003418e+001
1.003091e+001
1.002760e+001
1.002424e+001
1.002085e+001
1.001742e+001
1.001397e+001
1.001050e+001
1.000701e+001
1.000351e+001
1.000000e+001
1.000000e+001
1.000370e+001
1.000740e+001
1.001108e+001
1.001475e+001
1.001839e+001
1.002200e+001
1.002559e+001
1.002913e+001
1.003262e+001
1.003607e+001
1.003946e+001
1.004279e+001
1.004606e+001
1.004925e+001
1.005237e+001
1.005540e+001
1.005836e+001
1.006122e+001
1.006398e+001
1.006665e+001
1.006922e+001
1.007168e+001
1.007402e+001
1.007626e+001
1.007837e+001
1.008037e+001
1.008224e+001
1.008399e+001
1.008560e+001
1.008708e+001
1.008843e+001
1.008965e+001
1.009072e+001
1.009165e+001
1.009245e+001
1.009310e+001
1.009361e+001
1.009397e+001
1.009419e+001
1.009426e+001
1.009419e+001
1.009397e+001
1.009361e+001
1.009310e+001
1.009245e+001
1.009165e+001
1.009072e+001
1.008965e+001
1.008843e+001
1.008708e+001
1.008560e+001
1.008399e+001
1.008224e+001
1.008037e+001
1.007837e+001
1.007626e+001
1.007402e+001
1.007168e+001
1.006922e+001
1.006665e+001
1.006398e+001
1.006122e+001
1.005836e+001
1.005540e+001
1.005237e+001
1.004925e+001
1.004606e+001
1.004279e+001
1.003946e+001
1.003607e+001
1.003262e+001
1.002913e+001
1.002559e+001
1.002200e+001
1.001839e+001
1.001475e+001
1.001108e+001
1.000740e+001
1.000370e+001
1.000000e+001
1.000000e+001
1.000390e+001
1.000780e+001
1.001168e+001
1.001554e+001
1.001938e+001
1.002320e+001
1.002697e+001
1.003070e+001
1.003439e+001
1.003802e+001
1.004160e+001
1.004511e+001
1.004855e+001
1.005192e+001
1.005520e+001
1.005840e+001
1.006151e+001
1.006453e+001
1.006745e+001
1.007026e+001
1.007296e+001
1.007555e+001
1.007803e+001
1.008038e+001
1.008261e+001
1.008472e+001
1.008669e+001
1.008853e+001
1.009023e+001
1.009180e+001
1.009322e+001
1.009450e+001
1.009563e+001
1.009661e+001
1.009745e+001
1.009814e+001
1.009867e+001
1.009905e+001
1.009928e+001
1.009936e+001
1.009928e+001
1.009905e+001
1.009867e+001
1.009814e+001
1.009745e+001
1.009661e+001
1.009563e+001
1.009450e+001
1.009322e+001
1.009180e+001
1.009023e+001
1.008853e+001
1.008669e+001
1.008472e+001
1.008261e+001
1.008038e+001
1.007803e+001
1.007555e+001
1.007296e+001
1.007026e+001
1.006745e+001
1.006453e+001
1.006151e+001
1.005840e+001
1.005520e+001
1.005192e+001
1.004855e+001
1.004511e+001
1.004160e+001
1.003802e+001
1.003439e+001
1.003070e+001
1.002697e+001
1.002320e+001
1.001938e+001
1.001554e+001
1.001168e+001
1.000780e+001
1.000390e+001
1.000000e+001
1.000000e+001
1.000411e+001
1.000821e+001
1.001230e+001
1.001637e+001
1.002041e+001
1.002442e+001
1.002840e+001
1.003233e+001
1.003621e+001
1.004003e+001
1.004380e+001
1.004749e+001
1.005112e+001
1.005466e+001
1.005812e+001
1.006149e+001
1.006477e+001
1.006794e+001
1.007101e+001
1.007397e+001