# vtk DataFile Version 3.0
steady_diffusion_2D
ASCII
DATASET STRUCTURED_POINTS
DIMENSIONS 81 81 1
ORIGIN 0.0 0.0 0.0
SPACING 0.0125 0.0125 1.0
POINT_DATA 6561
SCALARS Temperature double 1
LOOKUP_TABLE default
1.500000e+001
1.500000e+001
1.500000e+001
1.500000e+001
1.500000e+001
1.500000e+001
1.500000e+001
1.500000e+001
1.500000e+001
1.500000e+001
1.500000e+001
1.500000e+001
1.500000e+001
1.500000e+001
1.500000e+001
1.500000e+001
1.500000e+001
1.500000e+001
1.500000e+001
1.500000e+001
1.500000e+001
1.500000e+001
1.500000e+001
1.500000e+001
1.500000e+001
1.500000e+001
1.500000e+001
1.500000e+001
1.500000e+001
1.500000e+001
1.500000e+001
1.500000e+001
1.500000e+001
1.500000e+001
1.500000e+001
1.500000e+001
1.500000e+001
1.500000e+001
1.500000e+001
1.500000e+001
1.500000e+001
1.500000e+001
1.500000e+001
1.500000e+001
1.500000e+001
1.500000e+001
1.500000e+001
1.500000e+001
1.500000e+001
1.500000e+001
1.500000e+001
1.500000e+001
1.500000e+001
1.500000e+001
1.500000e+001
1.500000e+001
1.500000e+001
1.500000e+001
1.500000e+001
1.500000e+001
1.500000e+001
1.500000e+001
1.500000e+001
1.500000e+001
1.500000e+001
1.500000e+001
1.500000e+001
1.500000e+001
1.500000e+001
1.500000e+001
1.500000e+001
1.500000e+001
1.500000e+001
1.500000e+001
1.500000e+001
1.500000e+001
1.500000e+001
1.500000e+001
1.500000e+001
1.500000e+001
1.500000e+001
1.500000e+001
1.125000e+001
9.843750e+000
9.316406e+000
9.118652e+000
9.044495e+000
9.016685e+000
9.006257e+000
9.002346e+000
9.000880e+000
9.000330e+000
9.000124e+000
9.000046e+000
9.000017e+000
9.000007e+000
9.000002e+000
9.000001e+000
9.000000e+000
9.000000e+000
9.000000e+000
9.000000e+000
9.000000e+000
9.000000e+000
9.000000e+000
9.000000e+000
9.000000e+000
9.000000e+000
9.000000e+000
9.000000e+000
9.000000e+000
9.000000e+000
9.000000e+000
9.000000e+000
9.000000e+000
9.000000e+000
9.000000e+000
9.000000e+000
9.000000e+000
9.000000e+000
9.000000e+000
9.000000e+000
9.000000e+000
9.000000e+000
9.000000e+000
9.000000e+000
9.000000e+000
9.000000e+000
9.000000e+000
9.000000e+000
9.000000e+000
9.000000e+000
9.000000e+000
9.000000e+000
9.000000e+000
9.000000e+000
9.000000e+000
9.000000e+000
9.000000e+000
9.000000e+000
9.000000e+000
9.000000e+000
9.000000e+000
9.000000e+000
9.000000e+000
9.000000e+000
9.000000e+000
9.000000e+000
9.000000e+000
9.000000e+000
9.000000e+000
9.000000e+000
9.000000e+000
9.000000e+000
9.000000e+000
9.000000e+000
9.000000e+000
9.000000e+000
9.000000e+000
9.000000e+000
9.000000e+000
1.500000e+001
1.500000e+001
9.843750e+000
7.382812e+000
6.262207e+000
5.767822e+000
5.554619e+000
5.464239e+000
5.426436e+000
5.410793e+000
5.404377e+000
5.401765e+000
5.400708e+000
5.400283e+000
5.400113e+000
5.400045e+000
5.400018e+000
5.400007e+000
5.400003e+000
5.400001e+000
5.400000e+000
5.400000e+000
5.400000e+000
5.400000e+000
5.400000e+000
5.400000e+000
5.400000e+000
5.400000e+000
5.400000e+000
5.400000e+000
5.400000e+000
5.400000e+000
5.400000e+000
5.400000e+000
5.400000e+000
5.400000e+000
5.400000e+000
5.400000e+000
5.400000e+000
5.400000e+000
5.400000e+000
5.400000e+000
5.400000e+000
5.400000e+000
5.400000e+000
5.400000e+000
5.400000e+000
5.400000e+000
5.400000e+000
5.400000e+000
5.400000e+000
5.400000e+000
5.400000e+000
5.400000e+000
5.400000e+000
5.400000e+000
5.400000e+000
5.400000e+000
5.400000e+000
5.400000e+000
5.400000e+000
5.400000e+000
5.400000e+000
5.400000e+000
5.400000e+000
5.400000e+000
5.400000e+000
5.400000e+000
5.400000e+000
5.400000e+000
5.400000e+000
5.400000e+000
5.400000e+000
5.400000e+000
5.400000e+000
5.400000e+000
5.400000e+000
5.400000e+000
5.400000e+000
5.400000e+000
5.400000e+000
1.500000e+001
1.500000e+001
9.316406e+000
6.262207e+000
4.696655e+000
3.924179e+000
3.554549e+000
3.382046e+000
3.303181e+000
3.267740e+000
3.252044e+000
3.245179e+000
3.242208e+000
3.240934e+000
3.240392e+000
3.240164e+000
3.240068e+000
3.240028e+000
3.240012e+000
3.240005e+000
3.240002e+000
3.240001e+000
3.240000e+000
3.240000e+000
3.240000e+000
3.240000e+000
3.240000e+000
3.240000e+000
3.240000e+000
3.240000e+000
3.240000e+000
3.240000e+000
3.240000e+000
3.240000e+000
3.240000e+000
3.240000e+000
3.240000e+000
3.240000e+000
3.240000e+000
3.240000e+000
3.240000e+000
3.240000e+000
3.240000e+000
3.240000e+000
3.240000e+000
3.240000e+000
3.240000e+000
3.240000e+000
3.240000e+000
3.240000e+000
3.240000e+000
3.240000e+000
3.240000e+000
3.240000e+000
3.240000e+000
3.240000e+000
3.240000e+000
3.240000e+000
3.240000e+000
3.240000e+000
3.240000e+000
3.240000e+000
3.240000e+000
3.240000e+000
3.240000e+000
3.240000e+000
3.240000e+000
3.240000e+000
3.240000e+000
3.240000e+000
3.240000e+000
3.240000e+000
3.240000e+000
3.240000e+000
3.240000e+000
3.240000e+000
3.240000e+000
3.240000e+000
3.240000e+000
3.240000e+000
3.240000e+000
1.500000e+001
1.500000e+001
9.118652e+000
5.767822e+000
3.924179e+000
2.943134e+000
2.436631e+000
2.182004e+000
2.056944e+000
1.996757e+000
1.968300e+000
1.955055e+000
1.948973e+000
1.946215e+000
1.944978e+000
1.944428e+000
1.944186e+000
1.944080e+000
1.944034e+000
1.944015e+000
1.944006e+000
1.944003e+000
1.944001e+000
1.944000e+000
1.944000e+000
1.944000e+000
1.944000e+000
1.944000e+000
1.944000e+000
1.944000e+000
1.944000e+000
1.944000e+000
1.944000e+000
1.944000e+000
1.944000e+000
1.944000e+000
1.944000e+000
1.944000e+000
1.944000e+000
1.944000e+000
1.944000e+000
1.944000e+000
1.944000e+000
1.944000e+000
1.944000e+000
1.944000e+000
1.944000e+000
1.944000e+000
1.944000e+000
1.944000e+000
1.944000e+000
1.944000e+000
1.944000e+000
1.944000e+000
1.944000e+000
1.944000e+000
1.944000e+000
1.944000e+000
1.944000e+000
1.944000e+000
1.944000e+000
1.944000e+000
1.944000e+000
1.944000e+000
1.944000e+000
1.944000e+000
1.944000e+000
1.944000e+000
1.944000e+000
1.944000e+000
1.944000e+000
1.944000e+000
1.944000e+000
1.944000e+000
1.944000e+000
1.944000e+000
1.944000e+000
1.944000e+000
1.944000e+000
1.944000e+000
1.944000e+000
1.500000e+001
1.500000e+001
9.044495e+000
5.554619e+000
3.554549e+000
2.436631e+000
1.827473e+000
1.503554e+000
1.335187e+000
1.249479e+000
1.206667e+000
1.185646e+000
1.175482e+000
1.170637e+000
1.168355e+000
1.167294e+000
1.166805e+000
1.166582e+000
1.166481e+000
1.166436e+000
1.166416e+000
1.166407e+000
1.166403e+000
1.166401e+000
1.166401e+000
1.166400e+000
1.166400e+000
1.166400e+000
1.166400e+000
1.166400e+000
1.166400e+000
1.166400e+000
1.166400e+000
1.166400e+000
1.166400e+000
1.166400e+000
1.166400e+000
1.166400e+000
1.166400e+000
1.166400e+000
1.166400e+000
1.166400e+000
1.166400e+000
1.166400e+000
1.166400e+000
1.166400e+000
1.166400e+000
1.166400e+000
1.166400e+000
1.166400e+000
1.166400e+000
1.166400e+000
1.166400e+000
1.166400e+000
1.166400e+000
1.166400e+000
1.166400e+000
1.166400e+000
1.166400e+000
1.166400e+000
1.166400e+000
1.166400e+000
1.166400e+000
1.166400e+000
1.166400e+000
1.166400e+000
1.166400e+000
1.166400e+000
1.166400e+000
1.166400e+000
1.166400e+000
1.166400e+000
1.166400e+000
1.166400e+000
1.166400e+000
1.166400e+000
1.166400e+000
1.166400e+000
1.166400e+000
1.166400e+000
1.166400e+000
1.500000e+001
1.500000e+001
9.016685e+000
5.464239e+000
3.382046e+000
2.182004e+000
1.503554e+000
1.127666e+000
9.235696e-001
8.148932e-001
7.580851e-001
7.288990e-001
7.141429e-001
7.067923e-001
7.031804e-001
7.014278e-001
7.005873e-001
7.001885e-001
7.000011e-001
6.999139e-001
6.998736e-001
6.998552e-001
6.998468e-001
6.998431e-001
6.998414e-001
6.998406e-001
6.998403e-001
6.998401e-001
6.998401e-001
6.998400e-001
6.998400e-001
6.998400e-001
6.998400e-001
6.998400e-001
6.998400e-001
6.998400e-001
6.998400e-001
6.998400e-001
6.998400e-001
6.998400e-001
6.998400e-001
6.998400e-001
6.998400e-001
6.998400e-001
6.998400e-001
6.998400e-001
6.998400e-001
6.998400e-001
6.998400e-001
6.998400e-001
6.998400e-001
6.998400e-001
6.998400e-001
6.998400e-001
6.998400e-001
6.998400e-001
6.998400e-001
6.998400e-001
6.998400e-001
6.998400e-001
6.998400e-001
6.998400e-001
6.998400e-001
6.998400e-001
6.998400e-001
6.998400e-001
6.998400e-001
6.998400e-001
6.998400e-001
6.998400e-001
6.998400e-001
6.998400e-001
6.998400e-001
6.998400e-001
6.998400e-001
6.998400e-001
6.998400e-001
6.998400e-001
6.998400e-001
6.998400e-001
6.998400e-001
1.500000e+001
1.500000e+001
9.006257e+000
5.426436e+000
3.303181e+000
2.056944e+000
1.335187e+000
9.235696e-001
6.926772e-001
5.653389e-001
4.962840e-001
4.594436e-001
4.400950e-001
4.300827e-001
4.249737e-001
4.224006e-001
4.211205e-001
4.204909e-001
4.201845e-001
4.200369e-001
4.199665e-001
4.199331e-001
4.199175e-001
4.199102e-001
4.199068e-001
4.199053e-001
4.199046e-001
4.199043e-001
4.199041e-001
4.199041e-001
4.199040e-001
4.199040e-001
4.199040e-001
4.199040e-001
4.199040e-001
4.199040e-001
4.199040e-001
4.199040e-001
4.199040e-001
4.199040e-001
4.199040e-001
4.199040e-001
4.199040e-001
4.199040e-001
4.199040e-001
4.199040e-001
4.199040e-001
4.199040e-001
4.199040e-001
4.199040e-001
4.199040e-001
4.199040e-001
4.199040e-001
4.199040e-001
4.199040e-001
4.199040e-001
4.199040e-001
4.199040e-001
4.199040e-001
4.199040e-001
4.199040e-001
4.199040e-001
4.199040e-001
4.199040e-001
4.199040e-001
4.199040e-001
4.199040e-001
4.199040e-001
4.199040e-001
4.199040e-001
4.199040e-001
4.199040e-001
4.199040e-001
4.199040e-001
4.199040e-001
4.199040e-001
4.199040e-001
4.199040e-001
4.199040e-001
4.199040e-001
4.199040e-001
1.500000e+001
1.500000e+001
9.002346e+000
5.410793e+000
3.267740e+000
1.996757e+000
1.249479e+000
8.148932e-001
5.653389e-001
4.240042e-001
3.451081e-001
3.017069e-001
2.781757e-001
2.655969e-001
2.589640e-001
2.555117e-001
2.537371e-001
2.528355e-001
2.523825e-001
2.521573e-001
2.520464e-001
2.519923e-001
2.519662e-001
2.519536e-001
2.519477e-001
2.519449e-001
2.519435e-001
2.519429e-001
2.519426e-001
2.519425e-001
2.519424e-001
2.519424e-001
2.519424e-001
2.519424e-001
2.519424e-001
2.519424e-001
2.519424e-001
2.519424e-001
2.519424e-001
2.519424e-001
2.519424e-001
2.519424e-001
2.519424e-001
2.519424e-001
2.519424e-001
2.519424e-001
2.519424e-001
2.519424e-001
2.519424e-001
2.519424e-001
2.519424e-001
2.519424e-001
2.519424e-001
2.519424e-001
2.519424e-001
2.519424e-001
2.519424e-001
2.519424e-001
2.519424e-001
2.519424e-001
2.519424e-001
2.519424e-001
2.519424e-001
2.519424e-001
2.519424e-001
2.519424e-001
2.519424e-001
2.519424e-001
2.519424e-001
2.519424e-001
2.519424e-001
2.519424e-001
2.519424e-001
2.519424e-001
2.519424e-001
2.519424e-001
2.519424e-001
2.519424e-001
2.519424e-001
2.519424e-001
2.519424e-001
1.500000e+001
1.500000e+001
9.000880e+000
5.404377e+000
3.252044e+000
1.968300e+000
1.206667e+000
7.580851e-001
4.962840e-001
3.451081e-001
2.588310e-001
2.102017e-001
1.831415e-001
1.682769e-001
1.602153e-001
1.558976e-001
1.536130e-001
1.524182e-001
1.518002e-001
1.514841e-001
1.513239e-001
1.512436e-001
1.512037e-001
1.511840e-001
1.511744e-001
1.511697e-001
1.511675e-001
1.511664e-001
1.511659e-001
1.511656e-001
1.511655e-001
1.511655e-001
1.511655e-001
1.511654e-001
1.511654e-001
1.511654e-001
1.511654e-001
1.511654e-001
1.511654e-001
1.511654e-001
1.511654e-001
1.511654e-001
1.511654e-001
1.511654e-001
1.511654e-001
1.511654e-001
1.511654e-001
1.511654e-001
1.511654e-001
1.511654e-001
1.511654e-001
1.511654e-001
1.511654e-001
1.511654e-001
1.511654e-001
1.511654e-001
1.511654e-001
1.511654e-001
1.511654e-001
1.511654e-001
1.511654e-001
1.511654e-001
1.511654e-001
1.511654e-001
1.511654e-001
1.511654e-001
1.511654e-001
1.511654e-001
1.511654e-001
1.511654e-001
1.511654e-001
1.511654e-001
1.511654e-001
1.511654e-001
1.511654e-001
1.511654e-001
1.511654e-001
1.511654e-001
1.511654e-001
1.511654e-001
1.511654e-001
1.500000e+001
1.500000e+001
9.000330e+000
5.401765e+000
3.245179e+000
1.955055e+000
1.185646e+000
7.288990e-001
4.594436e-001
3.017069e-001
2.102017e-001
1.576513e-001
1.277973e-001
1.110278e-001
1.017162e-001
9.660518e-002
9.383182e-002
9.234375e-002
9.155400e-002
9.113928e-002
9.092370e-002
9.081273e-002
9.075615e-002
9.072755e-002
9.071322e-002
9.070610e-002
9.070259e-002
9.070087e-002
9.070004e-002
9.069963e-002
9.069944e-002
9.069935e-002
9.069930e-002
9.069928e-002
9.069927e-002
9.069927e-002
9.069927e-002
9.069926e-002
9.069926e-002
9.069926e-002
9.069926e-002
9.069926e-002
9.069926e-002
9.069926e-002
9.069926e-002
9.069926e-002
9.069926e-002
9.069926e-002
9.069926e-002
9.069926e-002
9.069926e-002
9.069926e-002
9.069926e-002
9.069926e-002
9.069926e-002
9.069926e-002
9.069926e-002
9.069926e-002
9.069926e-002
9.069926e-002
9.069926e-002
9.069926e-002
9.069926e-002
9.069926e-002
9.069926e-002
9.069926e-002
9.069926e-002
9.069926e-002
9.069926e-002
9.069926e-002
9.069926e-002
9.069926e-002
9.069926e-002
9.069926e-002
9.069926e-002
9.069926e-002
9.069926e-002
9.069926e-002
9.069926e-002
9.069926e-002
9.069926e-002
1.500000e+001
1.500000e+001
9.000124e+000
5.400708e+000
3.242208e+000
1.948973e+000
1.175482e+000
7.141429e-001
4.400950e-001
2.781757e-001
1.831415e-001
1.277973e-001
9.584798e-002
7.757843e-002
6.723548e-002
6.144025e-002
5.822703e-002
5.646404e-002
5.550677e-002
5.499227e-002
5.471849e-002
5.457421e-002
5.449888e-002
5.445991e-002
5.443993e-002
5.442976e-002
5.442463e-002
5.442206e-002
5.442079e-002
5.442016e-002
5.441985e-002
5.441970e-002
5.441963e-002
5.441959e-002
5.441957e-002
5.441957e-002
5.441956e-002
5.441956e-002
5.441956e-002
5.441956e-002
5.441956e-002
5.441956e-002
5.441956e-002
5.441956e-002
5.441956e-002
5.441956e-002
5.441956e-002
5.441956e-002
5.441956e-002
5.441956e-002
5.441956e-002
5.441956e-002
5.441956e-002
5.441956e-002
5.441956e-002
5.441956e-002
5.441956e-002
5.441956e-002
5.441956e-002
5.441956e-002
5.441956e-002
5.441956e-002
5.441956e-002
5.441956e-002
5.441956e-002
5.441956e-002
5.441956e-002
5.441956e-002
5.441956e-002
5.441956e-002
5.441956e-002
5.441956e-002
5.441956e-002
5.441956e-002
5.441956e-002
5.441956e-002
5.441956e-002
5.441956e-002
5.441956e-002
5.441956e-002
5.441956e-002
1.500000e+001
1.500000e+001
9.000046e+000
5.400283e+000
3.240934e+000
1.946215e+000
1.170637e+000
7.067923e-001
4.300827e-001
2.655969e-001
1.682769e-001
1.110278e-001
7.757843e-002
5.818382e-002
4.703224e-002
4.067718e-002
3.708908e-002
3.508242e-002
3.397094e-002
3.336120e-002
3.302988e-002
3.285153e-002
3.275641e-002
3.270612e-002
3.267977e-002
3.266607e-002
3.265901e-002
3.265540e-002
3.265357e-002
3.265265e-002
3.265219e-002
3.265196e-002
3.265184e-002
3.265179e-002
3.265176e-002
3.265175e-002
3.265174e-002
3.265174e-002
3.265174e-002
3.265174e-002
3.265174e-002
3.265174e-002
3.265174e-002
3.265174e-002
3.265174e-002
3.265174e-002
3.265174e-002
3.265174e-002
3.265174e-002
3.265174e-002
3.265174e-002
3.265174e-002
3.265174e-002
3.265174e-002
3.265174e-002
3.265174e-002
3.265174e-002
3.265174e-002
3.265174e-002
3.265174e-002
3.265174e-002
3.265174e-002
3.265174e-002
3.265174e-002
3.265174e-002
3.265174e-002
3.265174e-002
3.265174e-002
3.265174e-002
3.265174e-002
3.265174e-002
3.265174e-002
3.265174e-002
3.265174e-002
3.265174e-002
3.265174e-002
3.265174e-002
3.265174e-002
3.265174e-002
3.265174e-002
3.265174e-002
1.500000e+001
1.500000e+001
9.000017e+000
5.400113e+000
3.240392e+000
1.944978e+000
1.168355e+000
7.031804e-001
4.249737e-001
2.589640e-001
1.602153e-001
1.017162e-001
6.723548e-002
4.703224e-002
3.527418e-002
2.848176e-002
2.458907e-002
2.237681e-002
2.113041e-002
2.043435e-002
2.004909e-002
1.983773e-002
1.972280e-002
1.966085e-002
1.962773e-002
1.961018e-002
1.960095e-002
1.959613e-002
1.959364e-002
1.959236e-002
1.959170e-002
1.959137e-002
1.959121e-002
1.959112e-002
1.959108e-002
1.959106e-002
1.959105e-002
1.959105e-002
1.959104e-002
1.959104e-002
1.959104e-002
1.959104e-002
1.959104e-002
1.959104e-002
1.959104e-002
1.959104e-002
1.959104e-002
1.959104e-002
1.959104e-002
1.959104e-002
1.959104e-002
1.959104e-002
1.959104e-002
1.959104e-002
1.959104e-002
1.959104e-002
1.959104e-002
1.959104e-002
1.959104e-002
1.959104e-002
1.959104e-002
1.959104e-002
1.959104e-002
1.959104e-002
1.959104e-002
1.959104e-002
1.959104e-002
1.959104e-002
1.959104e-002
1.959104e-002
1.959104e-002
1.959104e-002
1.959104e-002
1.959104e-002
1.959104e-002
1.959104e-002
1.959104e-002
1.959104e-002
1.959104e-002
1.959104e-002
1.959104e-002
1.500000e+001
1.500000e+001
9.000007e+000
5.400045e+000
3.240164e+000
1.944428e+000
1.167294e+000
7.014278e-001
4.224006e-001
2.555117e-001
1.558976e-001
9.660518e-002
6.144025e-002
4.067718e-002
2.848176e-002
2.136132e-002
1.723139e-002
1.485308e-002
1.349381e-002
1.272306e-002
1.228956e-002
1.204773e-002
1.191395e-002
1.184055e-002
1.180060e-002
1.177904e-002
1.176750e-002
1.176136e-002
1.175812e-002
1.175643e-002
1.175555e-002
1.175510e-002
1.175486e-002
1.175474e-002
1.175468e-002
1.175465e-002
1.175464e-002
1.175463e-002
1.175463e-002
1.175463e-002
1.175463e-002
1.175463e-002
1.175462e-002
1.175462e-002
1.175462e-002
1.175462e-002
1.175462e-002
1.175462e-002
1.175462e-002
1.175462e-002
1.175462e-002
1.175462e-002
1.175462e-002
1.175462e-002
1.175462e-002
1.175462e-002
1.175462e-002
1.175462e-002
1.175462e-002
1.175462e-002
1.175462e-002
1.175462e-002
1.175462e-002
1.175462e-002
1.175462e-002
1.175462e-002
1.175462e-002
1.175462e-002
1.175462e-002
1.175462e-002
1.175462e-002
1.175462e-002
1.175462e-002
1.175462e-002
1.175462e-002
1.175462e-002
1.175462e-002
1.175462e-002
1.175462e-002
1.175462e-002
1.175462e-002
1.500000e+001
1.500000e+001
9.000002e+000
5.400018e+000
3.240068e+000
1.944186e+000
1.166805e+000
7.005873e-001
4.211205e-001
2.537371e-001
1.536130e-001
9.383182e-002
5.822703e-002
3.708908e-002
2.458907e-002
1.723139e-002
1.292355e-002
1.041623e-002
8.966265e-003
8.133497e-003
7.658645e-003
7.389892e-003
7.238941e-003
7.154809e-003
7.108280e-003
7.082746e-003
7.068841e-003
7.061325e-003
7.057294e-003
7.055147e-003
7.054011e-003
7.053415e-003
7.053105e-003
7.052943e-003
7.052861e-003
7.052818e-003
7.052797e-003
7.052786e-003
7.052780e-003
7.052777e-003
7.052776e-003
7.052775e-003
7.052775e-003
7.052775e-003
7.052775e-003
7.052775e-003
7.052775e-003
7.052775e-003
7.052775e-003
7.052775e-003
7.052775e-003
7.052775e-003
7.052775e-003
7.052775e-003
7.052775e-003
7.052775e-003
7.052775e-003
7.052775e-003
7.052775e-003
7.052775e-003
7.052775e-003
7.052775e-003
7.052775e-003
7.052775e-003
7.052775e-003
7.052775e-003
7.052775e-003
7.052775e-003
7.052775e-003
7.052775e-003
7.052775e-003
7.052775e-003
7.052775e-003
7.052775e-003
7.052775e-003
7.052775e-003
7.052775e-003
7.052775e-003
7.052775e-003
7.052775e-003
7.052775e-003
1.500000e+001
1.500000e+001
9.000001e+000
5.400007e+000
3.240028e+000
1.944080e+000
1.166582e+000
7.001885e-001
4.204909e-001
2.528355e-001
1.524182e-001
9.234375e-002
5.646404e-002
3.508242e-002
2.237681e-002
1.485308e-002
1.041623e-002
7.812175e-003
6.291915e-003
5.409529e-003
4.900565e-003
4.608921e-003
4.442948e-003
4.349159e-003
4.296540e-003
4.267232e-003
4.251027e-003
4.242132e-003
4.237285e-003
4.234662e-003
4.233252e-003
4.232500e-003
4.232102e-003
4.231892e-003
4.231782e-003
4.231725e-003
4.231696e-003
4.231680e-003
4.231673e-003
4.231669e-003
4.231667e-003
4.231666e-003
4.231665e-003
4.231665e-003
4.231665e-003
4.231665e-003
4.231665e-003
4.231665e-003
4.231665e-003
4.231665e-003
4.231665e-003
4.231665e-003
4.231665e-003
4.231665e-003
4.231665e-003
4.231665e-003
4.231665e-003
4.231665e-003
4.231665e-003
4.231665e-003
4.231665e-003
4.231665e-003
4.231665e-003
4.231665e-003
4.231665e-003
4.231665e-003
4.231665e-003
4.231665e-003
4.231665e-003
4.231665e-003
4.231665e-003
4.231665e-003
4.231665e-003
4.231665e-003
4.231665e-003
4.231665e-003
4.231665e-003
4.231665e-003
4.231665e-003
4.231665e-003
4.231665e-003
1.500000e+001
1.500000e+001
9.000000e+000
5.400003e+000
3.240012e+000
1.944034e+000
1.166481e+000
7.000011e-001
4.201845e-001
2.523825e-001
1.518002e-001
9.155400e-002
5.550677e-002
3.397094e-002
2.113041e-002
1.349381e-002
8.966265e-003
6.291915e-003
4.718936e-003
3.798175e-003
3.262027e-003
2.951606e-003
2.772958e-003
2.670794e-003
2.612750e-003
2.579993e-003
2.561633e-003
2.551412e-003
2.545761e-003
2.542659e-003
2.540967e-003
2.540050e-003
2.539557e-003
2.539293e-003
2.539153e-003
2.539079e-003
2.539041e-003
2.539020e-003
2.539010e-003
2.539005e-003
2.539002e-003
2.539000e-003
2.539000e-003
2.538999e-003
2.538999e-003
2.538999e-003
2.538999e-003
2.538999e-003
2.538999e-003
2.538999e-003
2.538999e-003
2.538999e-003
2.538999e-003
2.538999e-003
2.538999e-003
2.538999e-003
2.538999e-003
2.538999e-003
2.538999e-003
2.538999e-003
2.538999e-003
2.538999e-003
2.538999e-003
2.538999e-003
2.538999e-003
2.538999e-003
2.538999e-003
2.538999e-003
2.538999e-003
2.538999e-003
2.538999e-003
2.538999e-003
2.538999e-003
2.538999e-003
2.538999e-003
2.538999e-003
2.538999e-003
2.538999e-003
2.538999e-003
2.538999e-003
2.538999e-003
1.500000e+001
1.500000e+001
9.000000e+000
5.400001e+000
3.240005e+000
1.944015e+000
1.166436e+000
6.999139e-001
4.200369e-001
2.521573e-001
1.514841e-001
9.113928e-002
5.499227e-002
3.336120e-002
2.043435e-002
1.272306e-002
8.133497e-003
5.409529e-003
3.798175e-003
2.848631e-003
2.291497e-003
1.966164e-003
1.777171e-003
1.667987e-003
1.605276e-003
1.569476e-003
1.549166e-003
1.537717e-003
1.531304e-003
1.527736e-003
1.525764e-003
1.524680e-003
1.524089e-003
1.523768e-003
1.523596e-003
1.523503e-003
1.523454e-003
1.523428e-003
1.523414e-003
1.523407e-003
1.523403e-003
1.523401e-003
1.523400e-003
1.523400e-003
1.523400e-003
1.523399e-003
1.523399e-003
1.523399e-003
1.523399e-003
1.523399e-003
1.523399e-003
1.523399e-003
1.523399e-003
1.523399e-003
1.523399e-003
1.523399e-003
1.523399e-003
1.523399e-003
1.523399e-003
1.523399e-003
1.523399e-003
1.523399e-003
1.523399e-003
1.523399e-003
1.523399e-003
1.523399e-003
1.523399e-003
1.523399e-003
1.523399e-003
1.523399e-003
1.523399e-003
1.523399e-003
1.523399e-003
1.523399e-003
1.523399e-003
1.523399e-003
1.523399e-003
1.523399e-003
1.523399e-003
1.523399e-003
1.523399e-003
1.500000e+001
1.500000e+001
9.000000e+000
5.400000e+000
3.240002e+000
1.944006e+000
1.166416e+000
6.998736e-001
4.199665e-001
2.520464e-001
1.513239e-001
9.092370e-002
5.471849e-002
3.302988e-002
2.004909e-002
1.228956e-002
7.658645e-003
4.900565e-003
3.262027e-003
2.291497e-003
1.718623e-003
1.381795e-003
1.184612e-003
1.069724e-003
1.003125e-003
9.647255e-004
9.427092e-004
9.301597e-004
9.230490e-004
9.190444e-004
9.168030e-004
9.155562e-004
9.148669e-004
9.144882e-004
9.142814e-004
9.141692e-004
9.141087e-004
9.140762e-004
9.140589e-004
9.140497e-004
9.140449e-004
9.140423e-004
9.140410e-004
9.140403e-004
9.140400e-004
9.140398e-004
9.140397e-004
9.140397e-004
9.140396e-004
9.140396e-004
9.140396e-004
9.140396e-004
9.140396e-004
9.140396e-004
9.140396e-004
9.140396e-004
9.140396e-004
9.140396e-004
9.140396e-004
9.140396e-004
9.140396e-004
9.140396e-004
9.140396e-004
9.140396e-004
9.140396e-004
9.140396e-004
9.140396e-004
9.140396e-004
9.140396e-004
9.140396e-004
9.140396e-004
9.140396e-004
9.140396e-004
9.140396e-004
9.140396e-004
9.140396e-004
9.140396e-004
9.140396e-004
9.140396e-004
9.140396e-004
9.140396e-004
1.500000e+001
1.500000e+001
9.000000e+000
5.400000e+000
3.240001e+000
1.944003e+000
1.166407e+000
6.998552e-001
4.199331e-001
2.519923e-001
1.512436e-001
9.081273e-002
5.457421e-002
3.285153e-002
1.983773e-002
1.204773e-002
7.389892e-003
4.608921e-003
2.951606e-003
1.966164e-003
1.381795e-003
1.036346e-003
8.328593e-004
7.134689e-004
6.437228e-004
6.031681e-004
5.797040e-004
5.661989e-004
5.584679e-004
5.540671e-004
5.515763e-004
5.501747e-004
5.493906e-004
5.489546e-004
5.487135e-004
5.485810e-004
5.485086e-004
5.484693e-004
5.484481e-004
5.484367e-004
5.484306e-004
5.484273e-004
5.484256e-004
5.484247e-004
5.484243e-004
5.484240e-004
5.484239e-004
5.484238e-004
5.484238e-004
5.484238e-004
5.484238e-004
5.484238e-004
5.484238e-004
5.484238e-004
5.484238e-004
5.484238e-004
5.484238e-004
5.484238e-004
5.484238e-004
5.484238e-004
5.484238e-004
5.484238e-004
5.484238e-004
5.484238e-004
5.484238e-004
5.484238e-004
5.484238e-004
5.484238e-004
5.484238e-004
5.484238e-004
5.484238e-004
5.484238e-004
5.484238e-004
5.484238e-004
5.484238e-004
5.484238e-004
5.484238e-004
5.484238e-004
5.484238e-004
5.484238e-004
5.484238e-004
1.500000e+001
1.500000e+001
9.000000e+000
5.400000e+000
3.240000e+000
1.944001e+000
1.166403e+000
6.998468e-001
4.199175e-001
2.519662e-001
1.512037e-001
9.075615e-002
5.449888e-002
3.275641e-002
1.972280e-002
1.191395e-002
7.238941e-003
4.442948e-003
2.772958e-003
1.777171e-003
1.184612e-003
8.328593e-004
6.246445e-004
5.017925e-004
4.295683e-004
3.872761e-004
3.626176e-004
3.483062e-004
3.400403e-004
3.352903e-004
3.325750e-004
3.310311e-004
3.301581e-004
3.296673e-004
3.293928e-004
3.292402e-004
3.291558e-004
3.291094e-004
3.290841e-004
3.290703e-004
3.290628e-004
3.290588e-004
3.290567e-004
3.290555e-004
3.290549e-004
3.290546e-004
3.290544e-004
3.290544e-004
3.290543e-004
3.290543e-004
3.290543e-004
3.290543e-004
3.290543e-004
3.290543e-004
3.290543e-004
3.290543e-004
3.290543e-004
3.290543e-004
3.290543e-004
3.290543e-004
3.290543e-004
3.290543e-004
3.290543e-004
3.290543e-004
3.290543e-004
3.290543e-004
3.290543e-004
3.290543e-004
3.290543e-004
3.290543e-004
3.290543e-004
3.290543e-004
3.290543e-004
3.290543e-004
3.290543e-004
3.290543e-004
3.290543e-004
3.290543e-004
3.290543e-004
3.290543e-004
3.290543e-004
1.500000e+001
1.500000e+001
9.000000e+000
5.400000e+000
3.240000e+000
1.944000e+000
1.166401e+000
6.998431e-001
4.199102e-001
2.519536e-001
1.511840e-001
9.072755e-002
5.445991e-002
3.270612e-002
1.966085e-002
1.184055e-002
7.154809e-003
4.349159e-003
2.670794e-003
1.667987e-003
1.069724e-003
7.134689e-004
5.017925e-004
3.763444e-004
3.022172e-004
2.585600e-004
2.329416e-004
2.179679e-004
2.092531e-004
2.042038e-004
2.012920e-004
1.996212e-004
1.986672e-004
1.981254e-004
1.978193e-004
1.976473e-004
1.975512e-004
1.974977e-004
1.974682e-004
1.974519e-004
1.974430e-004
1.974382e-004
1.974356e-004
1.974342e-004
1.974334e-004
1.974330e-004
1.974328e-004
1.974327e-004
1.974326e-004
1.974326e-004
1.974326e-004
1.974326e-004
1.974326e-004
1.974326e-004
1.974326e-004
1.974326e-004
1.974326e-004
1.974326e-004
1.974326e-004
1.974326e-004
1.974326e-004
1.974326e-004
1.974326e-004
1.974326e-004
1.974326e-004
1.974326e-004
1.974326e-004
1.974326e-004
1.974326e-004
1.974326e-004
1.974326e-004
1.974326e-004
1.974326e-004
1.974326e-004
1.974326e-004
1.974326e-004
1.974326e-004
1.974326e-004
1.974326e-004
1.974326e-004
1.974326e-004
1.500000e+001
1.500000e+001
9.000000e+000
5.400000e+000
3.240000e+000
1.944000e+000
1.166401e+000
6.998414e-001
4.199068e-001
2.519477e-001
1.511744e-001
9.071322e-002
5.443993e-002
3.267977e-002
1.962773e-002
1.180060e-002
7.108280e-003
4.296540e-003
2.612750e-003
1.605276e-003
1.003125e-003
6.437228e-004
4.295683e-004
3.022172e-004
2.266629e-004
1.819586e-004
1.555876e-004
1.400833e-004
1.310011e-004
1.257018e-004
1.226227e-004
1.208415e-004
1.198158e-004
1.192279e-004
1.188927e-004
1.187025e-004
1.185951e-004
1.185348e-004
1.185011e-004
1.184824e-004
1.184720e-004
1.184663e-004
1.184632e-004
1.184615e-004
1.184606e-004
1.184601e-004
1.184598e-004
1.184597e-004
1.184596e-004
1.184596e-004
1.184596e-004
1.184595e-004
1.184595e-004
1.184595e-004
1.184595e-004
1.184595e-004
1.184595e-004
1.184595e-004
1.184595e-004
1.184595e-004
1.184595e-004
1.184595e-004
1.184595e-004
1.184595e-004
1.184595e-004
1.184595e-004
1.184595e-004
1.184595e-004
1.184595e-004
1.184595e-004
1.184595e-004
1.184595e-004
1.184595e-004
1.184595e-004
1.184595e-004
1.184595e-004
1.184595e-004
1.184595e-004
1.184595e-004
1.184595e-004
1.184595e-004
1.500000e+001
1.500000e+001
9.000000e+000
5.400000e+000
3.240000e+000
1.944000e+000
1.166400e+000
6.998406e-001
4.199053e-001
2.519449e-001
1.511697e-001
9.070610e-002
5.442976e-002
3.266607e-002
1.961018e-002
1.177904e-002
7.082746e-003
4.267232e-003
2.579993e-003
1.569476e-003
9.647255e-004
6.031681e-004
3.872761e-004
2.585600e-004
1.819586e-004
1.364690e-004
1.095212e-004
9.360169e-005
8.422606e-005
7.872296e-005
7.550462e-005
7.362978e-005
7.254208e-005
7.191376e-005
7.155243e-005
7.134561e-005
7.122778e-005
7.116097e-005
7.112329e-005
7.110213e-005
7.109031e-005
7.108374e-005
7.108011e-005
7.107811e-005
7.107701e-005
7.107642e-005
7.107609e-005
7.107592e-005
7.107583e-005
7.107578e-005
7.107575e-005
7.107574e-005
7.107573e-005
7.107572e-005
7.107572e-005
7.107572e-005
7.107572e-005
7.107572e-005
7.107572e-005
7.107572e-005
7.107572e-005
7.107572e-005
7.107572e-005
7.107572e-005
7.107572e-005
7.107572e-005
7.107572e-005
7.107572e-005
7.107572e-005
7.107572e-005
7.107572e-005
7.107572e-005
7.107572e-005
7.107572e-005
7.107572e-005
7.107572e-005
7.107572e-005
7.107572e-005
7.107572e-005
7.107572e-005
7.107572e-005
1.500000e+001
1.500000e+001
9.000000e+000
5.400000e+000
3.240000e+000
1.944000e+000
1.166400e+000
6.998403e-001
4.199046e-001
2.519435e-001
1.511675e-001
9.070259e-002
5.442463e-002
3.265901e-002
1.960095e-002
1.176750e-002
7.068841e-003
4.251027e-003
2.561633e-003
1.549166e-003
9.427092e-004
5.797040e-004
3.626176e-004
2.329416e-004
1.555876e-004
1.095212e-004
8.214090e-005
6.590347e-005
5.629857e-005
5.063308e-005
4.730164e-005
4.534928e-005
4.420926e-005
4.354613e-005
4.316196e-005
4.294034e-005
4.281304e-005
4.274026e-005
4.269883e-005
4.267536e-005
4.266213e-005
4.265470e-005
4.265055e-005
4.264825e-005
4.264697e-005
4.264627e-005
4.264589e-005
4.264568e-005
4.264556e-005
4.264550e-005
4.264547e-005
4.264545e-005
4.264544e-005
4.264544e-005
4.264543e-005
4.264543e-005
4.264543e-005
4.264543e-005
4.264543e-005
4.264543e-005
4.264543e-005
4.264543e-005
4.264543e-005
4.264543e-005
4.264543e-005
4.264543e-005
4.264543e-005
4.264543e-005
4.264543e-005
4.264543e-005
4.264543e-005
4.264543e-005
4.264543e-005
4.264543e-005
4.264543e-005
4.264543e-005
4.264543e-005
4.264543e-005
4.264543e-005
4.264543e-005
4.264543e-005
1.500000e+001
1.500000e+001
9.000000e+000
5.400000e+000
3.240000e+000
1.944000e+000
1.166400e+000
6.998401e-001
4.199043e-001
2.519429e-001
1.511664e-001
9.070087e-002
5.442206e-002
3.265540e-002
1.959613e-002
1.176136e-002
7.061325e-003
4.242132e-003
2.551412e-003
1.537717e-003
9.301597e-004
5.661989e-004