# vtk DataFile Version 3.0
9 points difference shceme(4-order bound)
ASCII
DATASET STRUCTURED_POINTS
DIMENSIONS 11 11 1
ORIGIN 0.0 0.0 0.0
SPACING 0.1 0.1 1.0
POINT_DATA 121
SCALARS Temperature double 1
LOOKUP_TABLE default
1.000000e+01
1.000000e+01
1.000000e+01
1.000000e+01
1.000000e+01
1.000000e+01
1.000000e+01
1.000000e+01
1.000000e+01
1.000000e+01
1.000000e+01
1.000000e+01
1.000862e+01
1.001617e+01
1.002216e+01
1.002601e+01
1.002733e+01
1.002601e+01
1.002216e+01
1.001617e+01
1.000862e+01
1.000000e+01
1.000000e+01
1.001831e+01
1.003437e+01
1.004710e+01
1.005527e+01
1.005808e+01
1.005527e+01
1.004710e+01
1.003437e+01
1.001831e+01
1.000000e+01
1.000000e+01
1.002980e+01
1.005594e+01
1.007667e+01
1.008997e+01
1.009456e+01
1.008997e+01
1.007667e+01
1.005594e+01
1.002980e+01
1.000000e+01
1.000000e+01
1.004421e+01
1.008301e+01
1.011379e+01
1.013354e+01
1.014035e+01
1.013354e+01
1.011379e+01
1.008301e+01
1.004421e+01
1.000000e+01
1.000000e+01
1.006296e+01
1.011825e+01
1.016211e+01
1.019027e+01
1.019998e+01
1.019027e+01
1.016211e+01
1.011825e+01
1.006296e+01
1.000000e+01
1.000000e+01
1.008787e+01
1.016508e+01
1.022639e+01
1.026577e+01
1.027934e+01
1.026577e+01
1.022639e+01
1.016508e+01
1.008787e+01
1.000000e+01
1.000000e+01
1.012129e+01
1.022808e+01
1.031295e+01
1.036750e+01
1.038630e+01
1.036750e+01
1.031295e+01
1.022808e+01
1.012129e+01
1.000000e+01
1.000000e+01
1.016629e+01
1.031334e+01
1.043037e+01
1.050557e+01
1.053149e+01
1.050557e+01
1.043037e+01
1.031334e+01
1.016629e+01
1.000000e+01
1.000000e+01
1.022615e+01
1.042928e+01
1.059032e+01
1.069375e+01
1.072940e+01
1.069375e+01
1.059032e+01
1.042928e+01
1.022615e+01
1.000000e+01
1.000000e+01
1.030902e+01
1.058779e+01
1.080902e+01
1.095106e+01
1.100000e+01
1.095106e+01
1.080902e+01
1.058779e+01
1.030902e+01
1.000000e+01
